+ 0.1 1 4 ping 64 ------- 0 1.0 3.0 -1 0
- 0.1 1 4 ping 64 ------- 0 1.0 3.0 -1 0
+ 0.1 2 4 ping 30000 ------- 0 2.0 5.0 -1 1
- 0.1 2 4 ping 30000 ------- 0 2.0 5.0 -1 1
r 0.10612 1 4 ping 64 ------- 0 1.0 3.0 -1 0
+ 0.10612 4 3 ping 64 ------- 0 1.0 3.0 -1 0
- 0.10612 4 3 ping 64 ------- 0 1.0 3.0 -1 0
r 0.11224 4 3 ping 64 ------- 0 1.0 3.0 -1 0
+ 0.11224 3 4 ping 64 ------- 0 3.0 1.0 -1 2
- 0.11224 3 4 ping 64 ------- 0 3.0 1.0 -1 2
r 0.11836 3 4 ping 64 ------- 0 3.0 1.0 -1 2
+ 0.11836 4 1 ping 64 ------- 0 3.0 1.0 -1 2
- 0.11836 4 1 ping 64 ------- 0 3.0 1.0 -1 2
r 0.12448 4 1 ping 64 ------- 0 3.0 1.0 -1 2
+ 0.2 1 4 ping 64 ------- 0 1.0 3.0 -1 3
- 0.2 1 4 ping 64 ------- 0 1.0 3.0 -1 3
+ 0.2 2 4 ping 30000 ------- 0 2.0 5.0 -1 4
r 0.20612 1 4 ping 64 ------- 0 1.0 3.0 -1 3
+ 0.20612 4 3 ping 64 ------- 0 1.0 3.0 -1 3
- 0.20612 4 3 ping 64 ------- 0 1.0 3.0 -1 3
r 0.21224 4 3 ping 64 ------- 0 1.0 3.0 -1 3
+ 0.21224 3 4 ping 64 ------- 0 3.0 1.0 -1 5
- 0.21224 3 4 ping 64 ------- 0 3.0 1.0 -1 5
r 0.21836 3 4 ping 64 ------- 0 3.0 1.0 -1 5
+ 0.21836 4 1 ping 64 ------- 0 3.0 1.0 -1 5
- 0.21836 4 1 ping 64 ------- 0 3.0 1.0 -1 5
r 0.22448 4 1 ping 64 ------- 0 3.0 1.0 -1 5
+ 0.3 1 4 ping 64 ------- 0 1.0 3.0 -1 6
- 0.3 1 4 ping 64 ------- 0 1.0 3.0 -1 6
+ 0.3 2 4 ping 30000 ------- 0 2.0 5.0 -1 7
r 0.30612 1 4 ping 64 ------- 0 1.0 3.0 -1 6
+ 0.30612 4 3 ping 64 ------- 0 1.0 3.0 -1 6
- 0.30612 4 3 ping 64 ------- 0 1.0 3.0 -1 6
r 0.31224 4 3 ping 64 ------- 0 1.0 3.0 -1 6
+ 0.31224 3 4 ping 64 ------- 0 3.0 1.0 -1 8
- 0.31224 3 4 ping 64 ------- 0 3.0 1.0 -1 8
r 0.31836 3 4 ping 64 ------- 0 3.0 1.0 -1 8
+ 0.31836 4 1 ping 64 ------- 0 3.0 1.0 -1 8
- 0.31836 4 1 ping 64 ------- 0 3.0 1.0 -1 8
r 0.32448 4 1 ping 64 ------- 0 3.0 1.0 -1 8
+ 0.4 1 4 ping 64 ------- 0 1.0 3.0 -1 9
- 0.4 1 4 ping 64 ------- 0 1.0 3.0 -1 9
+ 0.4 2 4 ping 30000 ------- 0 2.0 5.0 -1 10
d 0.4 2 4 ping 30000 ------- 0 2.0 5.0 -1 10
r 0.40612 1 4 ping 64 ------- 0 1.0 3.0 -1 9
+ 0.40612 4 3 ping 64 ------- 0 1.0 3.0 -1 9
- 0.40612 4 3 ping 64 ------- 0 1.0 3.0 -1 9
r 0.41224 4 3 ping 64 ------- 0 1.0 3.0 -1 9
+ 0.41224 3 4 ping 64 ------- 0 3.0 1.0 -1 11
- 0.41224 3 4 ping 64 ------- 0 3.0 1.0 -1 11
r 0.41836 3 4 ping 64 ------- 0 3.0 1.0 -1 11
+ 0.41836 4 1 ping 64 ------- 0 3.0 1.0 -1 11
- 0.41836 4 1 ping 64 ------- 0 3.0 1.0 -1 11
r 0.42448 4 1 ping 64 ------- 0 3.0 1.0 -1 11
+ 0.5 1 4 ping 64 ------- 0 1.0 3.0 -1 12
- 0.5 1 4 ping 64 ------- 0 1.0 3.0 -1 12
+ 0.5 2 4 ping 30000 ------- 0 2.0 5.0 -1 13
d 0.5 2 4 ping 30000 ------- 0 2.0 5.0 -1 13
r 0.50612 1 4 ping 64 ------- 0 1.0 3.0 -1 12
+ 0.50612 4 3 ping 64 ------- 0 1.0 3.0 -1 12
- 0.50612 4 3 ping 64 ------- 0 1.0 3.0 -1 12
r 0.51224 4 3 ping 64 ------- 0 1.0 3.0 -1 12
+ 0.51224 3 4 ping 64 ------- 0 3.0 1.0 -1 14
- 0.51224 3 4 ping 64 ------- 0 3.0 1.0 -1 14
r 0.51836 3 4 ping 64 ------- 0 3.0 1.0 -1 14
+ 0.51836 4 1 ping 64 ------- 0 3.0 1.0 -1 14
- 0.51836 4 1 ping 64 ------- 0 3.0 1.0 -1 14
r 0.52448 4 1 ping 64 ------- 0 3.0 1.0 -1 14
+ 0.6 1 4 ping 64 ------- 0 1.0 3.0 -1 15
- 0.6 1 4 ping 64 ------- 0 1.0 3.0 -1 15
+ 0.6 2 4 ping 30000 ------- 0 2.0 5.0 -1 16
d 0.6 2 4 ping 30000 ------- 0 2.0 5.0 -1 16
r 0.60612 1 4 ping 64 ------- 0 1.0 3.0 -1 15
+ 0.60612 4 3 ping 64 ------- 0 1.0 3.0 -1 15
- 0.60612 4 3 ping 64 ------- 0 1.0 3.0 -1 15
r 0.61224 4 3 ping 64 ------- 0 1.0 3.0 -1 15
+ 0.61224 3 4 ping 64 ------- 0 3.0 1.0 -1 17
- 0.61224 3 4 ping 64 ------- 0 3.0 1.0 -1 17
r 0.61836 3 4 ping 64 ------- 0 3.0 1.0 -1 17
+ 0.61836 4 1 ping 64 ------- 0 3.0 1.0 -1 17
- 0.61836 4 1 ping 64 ------- 0 3.0 1.0 -1 17
r 0.62448 4 1 ping 64 ------- 0 3.0 1.0 -1 17
+ 0.7 1 4 ping 64 ------- 0 1.0 3.0 -1 18
- 0.7 1 4 ping 64 ------- 0 1.0 3.0 -1 18
+ 0.7 2 4 ping 30000 ------- 0 2.0 5.0 -1 19
d 0.7 2 4 ping 30000 ------- 0 2.0 5.0 -1 19
r 0.70612 1 4 ping 64 ------- 0 1.0 3.0 -1 18
+ 0.70612 4 3 ping 64 ------- 0 1.0 3.0 -1 18
- 0.70612 4 3 ping 64 ------- 0 1.0 3.0 -1 18
r 0.71224 4 3 ping 64 ------- 0 1.0 3.0 -1 18
+ 0.71224 3 4 ping 64 ------- 0 3.0 1.0 -1 20
- 0.71224 3 4 ping 64 ------- 0 3.0 1.0 -1 20
r 0.71836 3 4 ping 64 ------- 0 3.0 1.0 -1 20
+ 0.71836 4 1 ping 64 ------- 0 3.0 1.0 -1 20
- 0.71836 4 1 ping 64 ------- 0 3.0 1.0 -1 20
r 0.72448 4 1 ping 64 ------- 0 3.0 1.0 -1 20
+ 0.8 1 4 ping 64 ------- 0 1.0 3.0 -1 21
- 0.8 1 4 ping 64 ------- 0 1.0 3.0 -1 21
+ 0.8 2 4 ping 30000 ------- 0 2.0 5.0 -1 22
d 0.8 2 4 ping 30000 ------- 0 2.0 5.0 -1 22
r 0.80612 1 4 ping 64 ------- 0 1.0 3.0 -1 21
+ 0.80612 4 3 ping 64 ------- 0 1.0 3.0 -1 21
- 0.80612 4 3 ping 64 ------- 0 1.0 3.0 -1 21
r 0.81224 4 3 ping 64 ------- 0 1.0 3.0 -1 21
+ 0.81224 3 4 ping 64 ------- 0 3.0 1.0 -1 23
- 0.81224 3 4 ping 64 ------- 0 3.0 1.0 -1 23
r 0.81836 3 4 ping 64 ------- 0 3.0 1.0 -1 23
+ 0.81836 4 1 ping 64 ------- 0 3.0 1.0 -1 23
- 0.81836 4 1 ping 64 ------- 0 3.0 1.0 -1 23
r 0.82448 4 1 ping 64 ------- 0 3.0 1.0 -1 23
+ 0.9 1 4 ping 64 ------- 0 1.0 3.0 -1 24
- 0.9 1 4 ping 64 ------- 0 1.0 3.0 -1 24
+ 0.9 2 4 ping 30000 ------- 0 2.0 5.0 -1 25
d 0.9 2 4 ping 30000 ------- 0 2.0 5.0 -1 25
r 0.90612 1 4 ping 64 ------- 0 1.0 3.0 -1 24
+ 0.90612 4 3 ping 64 ------- 0 1.0 3.0 -1 24
- 0.90612 4 3 ping 64 ------- 0 1.0 3.0 -1 24
r 0.91224 4 3 ping 64 ------- 0 1.0 3.0 -1 24
+ 0.91224 3 4 ping 64 ------- 0 3.0 1.0 -1 26
- 0.91224 3 4 ping 64 ------- 0 3.0 1.0 -1 26
r 0.91836 3 4 ping 64 ------- 0 3.0 1.0 -1 26
+ 0.91836 4 1 ping 64 ------- 0 3.0 1.0 -1 26
- 0.91836 4 1 ping 64 ------- 0 3.0 1.0 -1 26
r 0.92448 4 1 ping 64 ------- 0 3.0 1.0 -1 26
+ 1 1 4 ping 64 ------- 0 1.0 3.0 -1 27
- 1 1 4 ping 64 ------- 0 1.0 3.0 -1 27
+ 1 2 4 ping 30000 ------- 0 2.0 5.0 -1 28
d 1 2 4 ping 30000 ------- 0 2.0 5.0 -1 28
r 1.00612 1 4 ping 64 ------- 0 1.0 3.0 -1 27
+ 1.00612 4 3 ping 64 ------- 0 1.0 3.0 -1 27
- 1.00612 4 3 ping 64 ------- 0 1.0 3.0 -1 27
r 1.01224 4 3 ping 64 ------- 0 1.0 3.0 -1 27
+ 1.01224 3 4 ping 64 ------- 0 3.0 1.0 -1 29
- 1.01224 3 4 ping 64 ------- 0 3.0 1.0 -1 29
r 1.01836 3 4 ping 64 ------- 0 3.0 1.0 -1 29
+ 1.01836 4 1 ping 64 ------- 0 3.0 1.0 -1 29
- 1.01836 4 1 ping 64 ------- 0 3.0 1.0 -1 29
r 1.02448 4 1 ping 64 ------- 0 3.0 1.0 -1 29
+ 1.1 1 4 ping 64 ------- 0 1.0 3.0 -1 30
- 1.1 1 4 ping 64 ------- 0 1.0 3.0 -1 30
+ 1.1 2 4 ping 30000 ------- 0 2.0 5.0 -1 31
d 1.1 2 4 ping 30000 ------- 0 2.0 5.0 -1 31
r 1.10612 1 4 ping 64 ------- 0 1.0 3.0 -1 30
+ 1.10612 4 3 ping 64 ------- 0 1.0 3.0 -1 30
- 1.10612 4 3 ping 64 ------- 0 1.0 3.0 -1 30
r 1.11224 4 3 ping 64 ------- 0 1.0 3.0 -1 30
+ 1.11224 3 4 ping 64 ------- 0 3.0 1.0 -1 32
- 1.11224 3 4 ping 64 ------- 0 3.0 1.0 -1 32
r 1.11836 3 4 ping 64 ------- 0 3.0 1.0 -1 32
+ 1.11836 4 1 ping 64 ------- 0 3.0 1.0 -1 32
- 1.11836 4 1 ping 64 ------- 0 3.0 1.0 -1 32
r 1.12448 4 1 ping 64 ------- 0 3.0 1.0 -1 32
+ 1.2 1 4 ping 64 ------- 0 1.0 3.0 -1 33
- 1.2 1 4 ping 64 ------- 0 1.0 3.0 -1 33
+ 1.2 2 4 ping 30000 ------- 0 2.0 5.0 -1 34
d 1.2 2 4 ping 30000 ------- 0 2.0 5.0 -1 34
r 1.20612 1 4 ping 64 ------- 0 1.0 3.0 -1 33
+ 1.20612 4 3 ping 64 ------- 0 1.0 3.0 -1 33
- 1.20612 4 3 ping 64 ------- 0 1.0 3.0 -1 33
r 1.21224 4 3 ping 64 ------- 0 1.0 3.0 -1 33
+ 1.21224 3 4 ping 64 ------- 0 3.0 1.0 -1 35
- 1.21224 3 4 ping 64 ------- 0 3.0 1.0 -1 35
r 1.21836 3 4 ping 64 ------- 0 3.0 1.0 -1 35
+ 1.21836 4 1 ping 64 ------- 0 3.0 1.0 -1 35
- 1.21836 4 1 ping 64 ------- 0 3.0 1.0 -1 35
r 1.22448 4 1 ping 64 ------- 0 3.0 1.0 -1 35
+ 1.3 1 4 ping 64 ------- 0 1.0 3.0 -1 36
- 1.3 1 4 ping 64 ------- 0 1.0 3.0 -1 36
+ 1.3 2 4 ping 30000 ------- 0 2.0 5.0 -1 37
d 1.3 2 4 ping 30000 ------- 0 2.0 5.0 -1 37
r 1.30612 1 4 ping 64 ------- 0 1.0 3.0 -1 36
+ 1.30612 4 3 ping 64 ------- 0 1.0 3.0 -1 36
- 1.30612 4 3 ping 64 ------- 0 1.0 3.0 -1 36
r 1.31224 4 3 ping 64 ------- 0 1.0 3.0 -1 36
+ 1.31224 3 4 ping 64 ------- 0 3.0 1.0 -1 38
- 1.31224 3 4 ping 64 ------- 0 3.0 1.0 -1 38
r 1.31836 3 4 ping 64 ------- 0 3.0 1.0 -1 38
+ 1.31836 4 1 ping 64 ------- 0 3.0 1.0 -1 38
- 1.31836 4 1 ping 64 ------- 0 3.0 1.0 -1 38
r 1.32448 4 1 ping 64 ------- 0 3.0 1.0 -1 38
+ 1.4 1 4 ping 64 ------- 0 1.0 3.0 -1 39
- 1.4 1 4 ping 64 ------- 0 1.0 3.0 -1 39
+ 1.4 2 4 ping 30000 ------- 0 2.0 5.0 -1 40
d 1.4 2 4 ping 30000 ------- 0 2.0 5.0 -1 40
r 1.40612 1 4 ping 64 ------- 0 1.0 3.0 -1 39
+ 1.40612 4 3 ping 64 ------- 0 1.0 3.0 -1 39
- 1.40612 4 3 ping 64 ------- 0 1.0 3.0 -1 39
r 1.41224 4 3 ping 64 ------- 0 1.0 3.0 -1 39
+ 1.41224 3 4 ping 64 ------- 0 3.0 1.0 -1 41
- 1.41224 3 4 ping 64 ------- 0 3.0 1.0 -1 41
r 1.41836 3 4 ping 64 ------- 0 3.0 1.0 -1 41
+ 1.41836 4 1 ping 64 ------- 0 3.0 1.0 -1 41
- 1.41836 4 1 ping 64 ------- 0 3.0 1.0 -1 41
r 1.42448 4 1 ping 64 ------- 0 3.0 1.0 -1 41
+ 1.5 1 4 ping 64 ------- 0 1.0 3.0 -1 42
- 1.5 1 4 ping 64 ------- 0 1.0 3.0 -1 42
+ 1.5 2 4 ping 30000 ------- 0 2.0 5.0 -1 43
d 1.5 2 4 ping 30000 ------- 0 2.0 5.0 -1 43
r 1.50612 1 4 ping 64 ------- 0 1.0 3.0 -1 42
+ 1.50612 4 3 ping 64 ------- 0 1.0 3.0 -1 42
- 1.50612 4 3 ping 64 ------- 0 1.0 3.0 -1 42
r 1.51224 4 3 ping 64 ------- 0 1.0 3.0 -1 42
+ 1.51224 3 4 ping 64 ------- 0 3.0 1.0 -1 44
- 1.51224 3 4 ping 64 ------- 0 3.0 1.0 -1 44
r 1.51836 3 4 ping 64 ------- 0 3.0 1.0 -1 44
+ 1.51836 4 1 ping 64 ------- 0 3.0 1.0 -1 44
- 1.51836 4 1 ping 64 ------- 0 3.0 1.0 -1 44
r 1.52448 4 1 ping 64 ------- 0 3.0 1.0 -1 44
+ 1.6 1 4 ping 64 ------- 0 1.0 3.0 -1 45
- 1.6 1 4 ping 64 ------- 0 1.0 3.0 -1 45
+ 1.6 2 4 ping 30000 ------- 0 2.0 5.0 -1 46
d 1.6 2 4 ping 30000 ------- 0 2.0 5.0 -1 46
r 1.60612 1 4 ping 64 ------- 0 1.0 3.0 -1 45
+ 1.60612 4 3 ping 64 ------- 0 1.0 3.0 -1 45
- 1.60612 4 3 ping 64 ------- 0 1.0 3.0 -1 45
r 1.61224 4 3 ping 64 ------- 0 1.0 3.0 -1 45
+ 1.61224 3 4 ping 64 ------- 0 3.0 1.0 -1 47
- 1.61224 3 4 ping 64 ------- 0 3.0 1.0 -1 47
r 1.61836 3 4 ping 64 ------- 0 3.0 1.0 -1 47
+ 1.61836 4 1 ping 64 ------- 0 3.0 1.0 -1 47
- 1.61836 4 1 ping 64 ------- 0 3.0 1.0 -1 47
r 1.62448 4 1 ping 64 ------- 0 3.0 1.0 -1 47
+ 1.7 1 4 ping 64 ------- 0 1.0 3.0 -1 48
- 1.7 1 4 ping 64 ------- 0 1.0 3.0 -1 48
+ 1.7 2 4 ping 30000 ------- 0 2.0 5.0 -1 49
d 1.7 2 4 ping 30000 ------- 0 2.0 5.0 -1 49
r 1.70612 1 4 ping 64 ------- 0 1.0 3.0 -1 48
+ 1.70612 4 3 ping 64 ------- 0 1.0 3.0 -1 48
- 1.70612 4 3 ping 64 ------- 0 1.0 3.0 -1 48
r 1.71224 4 3 ping 64 ------- 0 1.0 3.0 -1 48
+ 1.71224 3 4 ping 64 ------- 0 3.0 1.0 -1 50
- 1.71224 3 4 ping 64 ------- 0 3.0 1.0 -1 50
r 1.71836 3 4 ping 64 ------- 0 3.0 1.0 -1 50
+ 1.71836 4 1 ping 64 ------- 0 3.0 1.0 -1 50
- 1.71836 4 1 ping 64 ------- 0 3.0 1.0 -1 50
r 1.72448 4 1 ping 64 ------- 0 3.0 1.0 -1 50
+ 1.8 1 4 ping 64 ------- 0 1.0 3.0 -1 51
- 1.8 1 4 ping 64 ------- 0 1.0 3.0 -1 51
+ 1.8 2 4 ping 30000 ------- 0 2.0 5.0 -1 52
d 1.8 2 4 ping 30000 ------- 0 2.0 5.0 -1 52
r 1.80612 1 4 ping 64 ------- 0 1.0 3.0 -1 51
+ 1.80612 4 3 ping 64 ------- 0 1.0 3.0 -1 51
- 1.80612 4 3 ping 64 ------- 0 1.0 3.0 -1 51
r 1.81224 4 3 ping 64 ------- 0 1.0 3.0 -1 51
+ 1.81224 3 4 ping 64 ------- 0 3.0 1.0 -1 53
- 1.81224 3 4 ping 64 ------- 0 3.0 1.0 -1 53
r 1.81836 3 4 ping 64 ------- 0 3.0 1.0 -1 53
+ 1.81836 4 1 ping 64 ------- 0 3.0 1.0 -1 53
- 1.81836 4 1 ping 64 ------- 0 3.0 1.0 -1 53
r 1.82448 4 1 ping 64 ------- 0 3.0 1.0 -1 53
+ 1.9 1 4 ping 64 ------- 0 1.0 3.0 -1 54
- 1.9 1 4 ping 64 ------- 0 1.0 3.0 -1 54
+ 1.9 2 4 ping 30000 ------- 0 2.0 5.0 -1 55
d 1.9 2 4 ping 30000 ------- 0 2.0 5.0 -1 55
r 1.90612 1 4 ping 64 ------- 0 1.0 3.0 -1 54
+ 1.90612 4 3 ping 64 ------- 0 1.0 3.0 -1 54
- 1.90612 4 3 ping 64 ------- 0 1.0 3.0 -1 54
r 1.91224 4 3 ping 64 ------- 0 1.0 3.0 -1 54
+ 1.91224 3 4 ping 64 ------- 0 3.0 1.0 -1 56
- 1.91224 3 4 ping 64 ------- 0 3.0 1.0 -1 56
r 1.91836 3 4 ping 64 ------- 0 3.0 1.0 -1 56
+ 1.91836 4 1 ping 64 ------- 0 3.0 1.0 -1 56
- 1.91836 4 1 ping 64 ------- 0 3.0 1.0 -1 56
r 1.92448 4 1 ping 64 ------- 0 3.0 1.0 -1 56
+ 2 1 4 ping 64 ------- 0 1.0 3.0 -1 57
- 2 1 4 ping 64 ------- 0 1.0 3.0 -1 57
+ 2 2 4 ping 30000 ------- 0 2.0 5.0 -1 58
d 2 2 4 ping 30000 ------- 0 2.0 5.0 -1 58
r 2.00612 1 4 ping 64 ------- 0 1.0 3.0 -1 57
+ 2.00612 4 3 ping 64 ------- 0 1.0 3.0 -1 57
- 2.00612 4 3 ping 64 ------- 0 1.0 3.0 -1 57
r 2.01224 4 3 ping 64 ------- 0 1.0 3.0 -1 57
+ 2.01224 3 4 ping 64 ------- 0 3.0 1.0 -1 59
- 2.01224 3 4 ping 64 ------- 0 3.0 1.0 -1 59
r 2.01836 3 4 ping 64 ------- 0 3.0 1.0 -1 59
+ 2.01836 4 1 ping 64 ------- 0 3.0 1.0 -1 59
- 2.01836 4 1 ping 64 ------- 0 3.0 1.0 -1 59
r 2.02448 4 1 ping 64 ------- 0 3.0 1.0 -1 59
- 2.5 2 4 ping 30000 ------- 0 2.0 5.0 -1 4
r 2.501 2 4 ping 30000 ------- 0 2.0 5.0 -1 1
+ 2.501 4 5 ping 30000 ------- 0 2.0 5.0 -1 1
- 2.501 4 5 ping 30000 ------- 0 2.0 5.0 -1 1
