h 0.1 0 6 tcp 40 ------- 0 0.0 5.0 0 0
+ 0.11 0 6 tcp 40 ------- 0 0.0 5.0 0 0
- 0.11 0 6 tcp 40 ------- 0 0.0 5.0 0 0
r 0.120009 6 4 tcp 40 ------- 0 0.0 5.0 0 0
+ 0.120009 4 5 tcp 40 ------- 0 0.0 5.0 0 0
- 0.120009 4 5 tcp 40 ------- 0 0.0 5.0 0 0
r 0.121329 4 5 tcp 40 ------- 0 0.0 5.0 0 0
+ 0.121329 5 4 ack 40 ------- 0 5.0 0.0 0 1
- 0.121329 5 4 ack 40 ------- 0 5.0 0.0 0 1
r 0.122649 5 4 ack 40 ------- 0 5.0 0.0 0 1
h 0.122649 4 6 ack 40 ------- 0 5.0 0.0 0 1
+ 0.132649 4 6 ack 40 ------- 0 5.0 0.0 0 1
- 0.132649 4 6 ack 40 ------- 0 5.0 0.0 0 1
r 0.142658 6 0 ack 40 ------- 0 5.0 0.0 0 1
h 0.142658 0 6 tcp 1040 ------- 0 0.0 5.0 1 2
h 0.142658 0 6 tcp 1040 ------- 0 0.0 5.0 2 3
+ 0.152658 0 6 tcp 1040 ------- 0 0.0 5.0 1 2
- 0.152658 0 6 tcp 1040 ------- 0 0.0 5.0 1 2
+ 0.152658 0 6 tcp 1040 ------- 0 0.0 5.0 2 3
- 0.152744 0 6 tcp 1040 ------- 0 0.0 5.0 2 3
r 0.162747 6 4 tcp 1040 ------- 0 0.0 5.0 1 2
+ 0.162747 4 5 tcp 1040 ------- 0 0.0 5.0 1 2
- 0.162747 4 5 tcp 1040 ------- 0 0.0 5.0 1 2
r 0.162832 6 4 tcp 1040 ------- 0 0.0 5.0 2 3
+ 0.162832 4 5 tcp 1040 ------- 0 0.0 5.0 2 3
- 0.171067 4 5 tcp 1040 ------- 0 0.0 5.0 2 3
r 0.172067 4 5 tcp 1040 ------- 0 0.0 5.0 1 2
+ 0.172067 5 4 ack 40 ------- 0 5.0 0.0 1 4
- 0.172067 5 4 ack 40 ------- 0 5.0 0.0 1 4
r 0.173387 5 4 ack 40 ------- 0 5.0 0.0 1 4
h 0.173387 4 6 ack 40 ------- 0 5.0 0.0 1 4
r 0.180387 4 5 tcp 1040 ------- 0 0.0 5.0 2 3
+ 0.180387 5 4 ack 40 ------- 0 5.0 0.0 2 5
- 0.180387 5 4 ack 40 ------- 0 5.0 0.0 2 5
r 0.181707 5 4 ack 40 ------- 0 5.0 0.0 2 5
h 0.181707 4 6 ack 40 ------- 0 5.0 0.0 2 5
+ 0.183387 4 6 ack 40 ------- 0 5.0 0.0 1 4
- 0.183387 4 6 ack 40 ------- 0 5.0 0.0 1 4
+ 0.191707 4 6 ack 40 ------- 0 5.0 0.0 2 5
- 0.191707 4 6 ack 40 ------- 0 5.0 0.0 2 5
r 0.193396 6 0 ack 40 ------- 0 5.0 0.0 1 4
h 0.193396 0 6 tcp 1040 ------- 0 0.0 5.0 3 6
h 0.193396 0 6 tcp 1040 ------- 0 0.0 5.0 4 7
h 0.2 1 6 tcp 40 ------- 0 1.0 3.0 0 8
r 0.201716 6 0 ack 40 ------- 0 5.0 0.0 2 5
h 0.201716 0 6 tcp 1040 ------- 0 0.0 5.0 5 9
h 0.201716 0 6 tcp 1040 ------- 0 0.0 5.0 6 10
+ 0.203396 0 6 tcp 1040 ------- 0 0.0 5.0 3 6
- 0.203396 0 6 tcp 1040 ------- 0 0.0 5.0 3 6
+ 0.203396 0 6 tcp 1040 ------- 0 0.0 5.0 4 7
- 0.203481 0 6 tcp 1040 ------- 0 0.0 5.0 4 7
+ 0.21 1 6 tcp 40 ------- 0 1.0 3.0 0 8
- 0.21 1 6 tcp 40 ------- 0 1.0 3.0 0 8
+ 0.211716 0 6 tcp 1040 ------- 0 0.0 5.0 5 9
- 0.211716 0 6 tcp 1040 ------- 0 0.0 5.0 5 9
+ 0.211716 0 6 tcp 1040 ------- 0 0.0 5.0 6 10
- 0.211801 0 6 tcp 1040 ------- 0 0.0 5.0 6 10
r 0.213484 6 4 tcp 1040 ------- 0 0.0 5.0 3 6
+ 0.213484 4 5 tcp 1040 ------- 0 0.0 5.0 3 6
- 0.213484 4 5 tcp 1040 ------- 0 0.0 5.0 3 6
r 0.213569 6 4 tcp 1040 ------- 0 0.0 5.0 4 7
+ 0.213569 4 5 tcp 1040 ------- 0 0.0 5.0 4 7
r 0.220009 6 2 tcp 40 ------- 0 1.0 3.0 0 8
+ 0.220009 2 3 tcp 40 ------- 0 1.0 3.0 0 8
- 0.220009 2 3 tcp 40 ------- 0 1.0 3.0 0 8
r 0.221329 2 3 tcp 40 ------- 0 1.0 3.0 0 8
+ 0.221329 3 2 ack 40 ------- 0 3.0 1.0 0 11
- 0.221329 3 2 ack 40 ------- 0 3.0 1.0 0 11
r 0.221804 6 4 tcp 1040 ------- 0 0.0 5.0 5 9
+ 0.221804 4 5 tcp 1040 ------- 0 0.0 5.0 5 9
- 0.221804 4 5 tcp 1040 ------- 0 0.0 5.0 4 7
r 0.221889 6 4 tcp 1040 ------- 0 0.0 5.0 6 10
+ 0.221889 4 5 tcp 1040 ------- 0 0.0 5.0 6 10
r 0.222649 3 2 ack 40 ------- 0 3.0 1.0 0 11
h 0.222649 2 6 ack 40 ------- 0 3.0 1.0 0 11
r 0.222804 4 5 tcp 1040 ------- 0 0.0 5.0 3 6
+ 0.222804 5 4 ack 40 ------- 0 5.0 0.0 3 12
- 0.222804 5 4 ack 40 ------- 0 5.0 0.0 3 12
r 0.224124 5 4 ack 40 ------- 0 5.0 0.0 3 12
h 0.224124 4 6 ack 40 ------- 0 5.0 0.0 3 12
- 0.230124 4 5 tcp 1040 ------- 0 0.0 5.0 5 9
r 0.231124 4 5 tcp 1040 ------- 0 0.0 5.0 4 7
+ 0.231124 5 4 ack 40 ------- 0 5.0 0.0 4 13
- 0.231124 5 4 ack 40 ------- 0 5.0 0.0 4 13
r 0.232444 5 4 ack 40 ------- 0 5.0 0.0 4 13
h 0.232444 4 6 ack 40 ------- 0 5.0 0.0 4 13
+ 0.232649 2 6 ack 40 ------- 0 3.0 1.0 0 11
- 0.232649 2 6 ack 40 ------- 0 3.0 1.0 0 11
+ 0.234124 4 6 ack 40 ------- 0 5.0 0.0 3 12
- 0.234124 4 6 ack 40 ------- 0 5.0 0.0 3 12
- 0.238444 4 5 tcp 1040 ------- 0 0.0 5.0 6 10
r 0.239444 4 5 tcp 1040 ------- 0 0.0 5.0 5 9
+ 0.239444 5 4 ack 40 ------- 0 5.0 0.0 5 14
- 0.239444 5 4 ack 40 ------- 0 5.0 0.0 5 14
r 0.240764 5 4 ack 40 ------- 0 5.0 0.0 5 14
h 0.240764 4 6 ack 40 ------- 0 5.0 0.0 5 14
+ 0.242444 4 6 ack 40 ------- 0 5.0 0.0 4 13
- 0.242444 4 6 ack 40 ------- 0 5.0 0.0 4 13
r 0.242658 6 1 ack 40 ------- 0 3.0 1.0 0 11
h 0.242658 1 6 tcp 1040 ------- 0 1.0 3.0 1 15
h 0.242658 1 6 tcp 1040 ------- 0 1.0 3.0 2 16
r 0.244133 6 0 ack 40 ------- 0 5.0 0.0 3 12
h 0.244133 0 6 tcp 1040 ------- 0 0.0 5.0 7 17
h 0.244133 0 6 tcp 1040 ------- 0 0.0 5.0 8 18
r 0.247764 4 5 tcp 1040 ------- 0 0.0 5.0 6 10
+ 0.247764 5 4 ack 40 ------- 0 5.0 0.0 6 19
- 0.247764 5 4 ack 40 ------- 0 5.0 0.0 6 19
r 0.249084 5 4 ack 40 ------- 0 5.0 0.0 6 19
h 0.249084 4 6 ack 40 ------- 0 5.0 0.0 6 19
+ 0.250764 4 6 ack 40 ------- 0 5.0 0.0 5 14
- 0.250764 4 6 ack 40 ------- 0 5.0 0.0 5 14
r 0.252453 6 0 ack 40 ------- 0 5.0 0.0 4 13
h 0.252453 0 6 tcp 1040 ------- 0 0.0 5.0 9 20
h 0.252453 0 6 tcp 1040 ------- 0 0.0 5.0 10 21
+ 0.252658 1 6 tcp 1040 ------- 0 1.0 3.0 1 15
- 0.252658 1 6 tcp 1040 ------- 0 1.0 3.0 1 15
+ 0.252658 1 6 tcp 1040 ------- 0 1.0 3.0 2 16
- 0.252744 1 6 tcp 1040 ------- 0 1.0 3.0 2 16
+ 0.254133 0 6 tcp 1040 ------- 0 0.0 5.0 7 17
- 0.254133 0 6 tcp 1040 ------- 0 0.0 5.0 7 17
+ 0.254133 0 6 tcp 1040 ------- 0 0.0 5.0 8 18
- 0.254218 0 6 tcp 1040 ------- 0 0.0 5.0 8 18
+ 0.259084 4 6 ack 40 ------- 0 5.0 0.0 6 19
- 0.259084 4 6 ack 40 ------- 0 5.0 0.0 6 19
r 0.260773 6 0 ack 40 ------- 0 5.0 0.0 5 14
h 0.260773 0 6 tcp 1040 ------- 0 0.0 5.0 11 22
h 0.260773 0 6 tcp 1040 ------- 0 0.0 5.0 12 23
+ 0.262453 0 6 tcp 1040 ------- 0 0.0 5.0 9 20
- 0.262453 0 6 tcp 1040 ------- 0 0.0 5.0 9 20
+ 0.262453 0 6 tcp 1040 ------- 0 0.0 5.0 10 21
- 0.262538 0 6 tcp 1040 ------- 0 0.0 5.0 10 21
r 0.262747 6 2 tcp 1040 ------- 0 1.0 3.0 1 15
+ 0.262747 2 3 tcp 1040 ------- 0 1.0 3.0 1 15
- 0.262747 2 3 tcp 1040 ------- 0 1.0 3.0 1 15
r 0.262832 6 2 tcp 1040 ------- 0 1.0 3.0 2 16
+ 0.262832 2 3 tcp 1040 ------- 0 1.0 3.0 2 16
r 0.264221 6 4 tcp 1040 ------- 0 0.0 5.0 7 17
+ 0.264221 4 5 tcp 1040 ------- 0 0.0 5.0 7 17
- 0.264221 4 5 tcp 1040 ------- 0 0.0 5.0 7 17
r 0.264307 6 4 tcp 1040 ------- 0 0.0 5.0 8 18
+ 0.264307 4 5 tcp 1040 ------- 0 0.0 5.0 8 18
r 0.269093 6 0 ack 40 ------- 0 5.0 0.0 6 19
h 0.269093 0 6 tcp 1040 ------- 0 0.0 5.0 13 24
h 0.269093 0 6 tcp 1040 ------- 0 0.0 5.0 14 25
+ 0.270773 0 6 tcp 1040 ------- 0 0.0 5.0 11 22
- 0.270773 0 6 tcp 1040 ------- 0 0.0 5.0 11 22
+ 0.270773 0 6 tcp 1040 ------- 0 0.0 5.0 12 23
- 0.270858 0 6 tcp 1040 ------- 0 0.0 5.0 12 23
- 0.271067 2 3 tcp 1040 ------- 0 1.0 3.0 2 16
r 0.272067 2 3 tcp 1040 ------- 0 1.0 3.0 1 15
+ 0.272067 3 2 ack 40 ------- 0 3.0 1.0 1 26
- 0.272067 3 2 ack 40 ------- 0 3.0 1.0 1 26
r 0.272541 6 4 tcp 1040 ------- 0 0.0 5.0 9 20
+ 0.272541 4 5 tcp 1040 ------- 0 0.0 5.0 9 20
- 0.272541 4 5 tcp 1040 ------- 0 0.0 5.0 8 18
r 0.272627 6 4 tcp 1040 ------- 0 0.0 5.0 10 21
+ 0.272627 4 5 tcp 1040 ------- 0 0.0 5.0 10 21
r 0.273387 3 2 ack 40 ------- 0 3.0 1.0 1 26
h 0.273387 2 6 ack 40 ------- 0 3.0 1.0 1 26
r 0.273541 4 5 tcp 1040 ------- 0 0.0 5.0 7 17
+ 0.273541 5 4 ack 40 ------- 0 5.0 0.0 7 27
- 0.273541 5 4 ack 40 ------- 0 5.0 0.0 7 27
r 0.274861 5 4 ack 40 ------- 0 5.0 0.0 7 27
h 0.274861 4 6 ack 40 ------- 0 5.0 0.0 7 27
+ 0.279093 0 6 tcp 1040 ------- 0 0.0 5.0 13 24
- 0.279093 0 6 tcp 1040 ------- 0 0.0 5.0 13 24
+ 0.279093 0 6 tcp 1040 ------- 0 0.0 5.0 14 25
- 0.279178 0 6 tcp 1040 ------- 0 0.0 5.0 14 25
r 0.280387 2 3 tcp 1040 ------- 0 1.0 3.0 2 16
+ 0.280387 3 2 ack 40 ------- 0 3.0 1.0 2 28
- 0.280387 3 2 ack 40 ------- 0 3.0 1.0 2 28
- 0.280861 4 5 tcp 1040 ------- 0 0.0 5.0 9 20
r 0.280861 6 4 tcp 1040 ------- 0 0.0 5.0 11 22
+ 0.280861 4 5 tcp 1040 ------- 0 0.0 5.0 11 22
r 0.280947 6 4 tcp 1040 ------- 0 0.0 5.0 12 23
+ 0.280947 4 5 tcp 1040 ------- 0 0.0 5.0 12 23
d 0.280947 4 5 tcp 1040 ------- 0 0.0 5.0 12 23
r 0.281707 3 2 ack 40 ------- 0 3.0 1.0 2 28
h 0.281707 2 6 ack 40 ------- 0 3.0 1.0 2 28
r 0.281861 4 5 tcp 1040 ------- 0 0.0 5.0 8 18
+ 0.281861 5 4 ack 40 ------- 0 5.0 0.0 8 29
- 0.281861 5 4 ack 40 ------- 0 5.0 0.0 8 29
r 0.283181 5 4 ack 40 ------- 0 5.0 0.0 8 29
h 0.283181 4 6 ack 40 ------- 0 5.0 0.0 8 29
+ 0.283387 2 6 ack 40 ------- 0 3.0 1.0 1 26
- 0.283387 2 6 ack 40 ------- 0 3.0 1.0 1 26
+ 0.284861 4 6 ack 40 ------- 0 5.0 0.0 7 27
- 0.284861 4 6 ack 40 ------- 0 5.0 0.0 7 27
- 0.289181 4 5 tcp 1040 ------- 0 0.0 5.0 10 21
r 0.289181 6 4 tcp 1040 ------- 0 0.0 5.0 13 24
+ 0.289181 4 5 tcp 1040 ------- 0 0.0 5.0 13 24
r 0.289267 6 4 tcp 1040 ------- 0 0.0 5.0 14 25
+ 0.289267 4 5 tcp 1040 ------- 0 0.0 5.0 14 25
d 0.289267 4 5 tcp 1040 ------- 0 0.0 5.0 14 25
r 0.290181 4 5 tcp 1040 ------- 0 0.0 5.0 9 20
+ 0.290181 5 4 ack 40 ------- 0 5.0 0.0 9 30
- 0.290181 5 4 ack 40 ------- 0 5.0 0.0 9 30
r 0.291501 5 4 ack 40 ------- 0 5.0 0.0 9 30
h 0.291501 4 6 ack 40 ------- 0 5.0 0.0 9 30
+ 0.291707 2 6 ack 40 ------- 0 3.0 1.0 2 28
- 0.291707 2 6 ack 40 ------- 0 3.0 1.0 2 28
+ 0.293181 4 6 ack 40 ------- 0 5.0 0.0 8 29
- 0.293181 4 6 ack 40 ------- 0 5.0 0.0 8 29
r 0.293396 6 1 ack 40 ------- 0 3.0 1.0 1 26
h 0.293396 1 6 tcp 1040 ------- 0 1.0 3.0 3 31
h 0.293396 1 6 tcp 1040 ------- 0 1.0 3.0 4 32
r 0.294871 6 0 ack 40 ------- 0 5.0 0.0 7 27
h 0.294871 0 6 tcp 1040 ------- 0 0.0 5.0 15 33
h 0.294871 0 6 tcp 1040 ------- 0 0.0 5.0 16 34
- 0.297501 4 5 tcp 1040 ------- 0 0.0 5.0 11 22
r 0.298501 4 5 tcp 1040 ------- 0 0.0 5.0 10 21
+ 0.298501 5 4 ack 40 ------- 0 5.0 0.0 10 35
- 0.298501 5 4 ack 40 ------- 0 5.0 0.0 10 35
r 0.299821 5 4 ack 40 ------- 0 5.0 0.0 10 35
h 0.299821 4 6 ack 40 ------- 0 5.0 0.0 10 35
+ 0.301501 4 6 ack 40 ------- 0 5.0 0.0 9 30
- 0.301501 4 6 ack 40 ------- 0 5.0 0.0 9 30
r 0.301716 6 1 ack 40 ------- 0 3.0 1.0 2 28
h 0.301716 1 6 tcp 1040 ------- 0 1.0 3.0 5 36
h 0.301716 1 6 tcp 1040 ------- 0 1.0 3.0 6 37
r 0.303191 6 0 ack 40 ------- 0 5.0 0.0 8 29
h 0.303191 0 6 tcp 1040 ------- 0 0.0 5.0 17 38
h 0.303191 0 6 tcp 1040 ------- 0 0.0 5.0 18 39
+ 0.303396 1 6 tcp 1040 ------- 0 1.0 3.0 3 31
- 0.303396 1 6 tcp 1040 ------- 0 1.0 3.0 3 31
+ 0.303396 1 6 tcp 1040 ------- 0 1.0 3.0 4 32
- 0.303481 1 6 tcp 1040 ------- 0 1.0 3.0 4 32
+ 0.304871 0 6 tcp 1040 ------- 0 0.0 5.0 15 33
- 0.304871 0 6 tcp 1040 ------- 0 0.0 5.0 15 33
+ 0.304871 0 6 tcp 1040 ------- 0 0.0 5.0 16 34
- 0.304956 0 6 tcp 1040 ------- 0 0.0 5.0 16 34
- 0.305821 4 5 tcp 1040 ------- 0 0.0 5.0 13 24
r 0.306821 4 5 tcp 1040 ------- 0 0.0 5.0 11 22
+ 0.306821 5 4 ack 40 ------- 0 5.0 0.0 11 40
- 0.306821 5 4 ack 40 ------- 0 5.0 0.0 11 40
r 0.308141 5 4 ack 40 ------- 0 5.0 0.0 11 40
h 0.308141 4 6 ack 40 ------- 0 5.0 0.0 11 40
+ 0.309821 4 6 ack 40 ------- 0 5.0 0.0 10 35
- 0.309821 4 6 ack 40 ------- 0 5.0 0.0 10 35
r 0.311511 6 0 ack 40 ------- 0 5.0 0.0 9 30
h 0.311511 0 6 tcp 1040 ------- 0 0.0 5.0 19 41
h 0.311511 0 6 tcp 1040 ------- 0 0.0 5.0 20 42
+ 0.311716 1 6 tcp 1040 ------- 0 1.0 3.0 5 36
- 0.311716 1 6 tcp 1040 ------- 0 1.0 3.0 5 36
+ 0.311716 1 6 tcp 1040 ------- 0 1.0 3.0 6 37
- 0.311801 1 6 tcp 1040 ------- 0 1.0 3.0 6 37
+ 0.313191 0 6 tcp 1040 ------- 0 0.0 5.0 17 38
- 0.313191 0 6 tcp 1040 ------- 0 0.0 5.0 17 38
+ 0.313191 0 6 tcp 1040 ------- 0 0.0 5.0 18 39
- 0.313276 0 6 tcp 1040 ------- 0 0.0 5.0 18 39
r 0.313484 6 2 tcp 1040 ------- 0 1.0 3.0 3 31
+ 0.313484 2 3 tcp 1040 ------- 0 1.0 3.0 3 31
- 0.313484 2 3 tcp 1040 ------- 0 1.0 3.0 3 31
r 0.313569 6 2 tcp 1040 ------- 0 1.0 3.0 4 32
+ 0.313569 2 3 tcp 1040 ------- 0 1.0 3.0 4 32
r 0.314959 6 4 tcp 1040 ------- 0 0.0 5.0 15 33
+ 0.314959 4 5 tcp 1040 ------- 0 0.0 5.0 15 33
- 0.314959 4 5 tcp 1040 ------- 0 0.0 5.0 15 33
r 0.315044 6 4 tcp 1040 ------- 0 0.0 5.0 16 34
+ 0.315044 4 5 tcp 1040 ------- 0 0.0 5.0 16 34
r 0.315141 4 5 tcp 1040 ------- 0 0.0 5.0 13 24
+ 0.315141 5 4 ack 40 ------- 0 5.0 0.0 11 43
- 0.315141 5 4 ack 40 ------- 0 5.0 0.0 11 43
r 0.316461 5 4 ack 40 ------- 0 5.0 0.0 11 43
h 0.316461 4 6 ack 40 ------- 0 5.0 0.0 11 43
+ 0.318141 4 6 ack 40 ------- 0 5.0 0.0 11 40
- 0.318141 4 6 ack 40 ------- 0 5.0 0.0 11 40
r 0.319831 6 0 ack 40 ------- 0 5.0 0.0 10 35
h 0.319831 0 6 tcp 1040 ------- 0 0.0 5.0 21 44
h 0.319831 0 6 tcp 1040 ------- 0 0.0 5.0 22 45
+ 0.321511 0 6 tcp 1040 ------- 0 0.0 5.0 19 41
- 0.321511 0 6 tcp 1040 ------- 0 0.0 5.0 19 41
+ 0.321511 0 6 tcp 1040 ------- 0 0.0 5.0 20 42
- 0.321596 0 6 tcp 1040 ------- 0 0.0 5.0 20 42
r 0.321804 6 2 tcp 1040 ------- 0 1.0 3.0 5 36
+ 0.321804 2 3 tcp 1040 ------- 0 1.0 3.0 5 36
- 0.321804 2 3 tcp 1040 ------- 0 1.0 3.0 4 32
r 0.321889 6 2 tcp 1040 ------- 0 1.0 3.0 6 37
+ 0.321889 2 3 tcp 1040 ------- 0 1.0 3.0 6 37
r 0.322804 2 3 tcp 1040 ------- 0 1.0 3.0 3 31
+ 0.322804 3 2 ack 40 ------- 0 3.0 1.0 3 46
- 0.322804 3 2 ack 40 ------- 0 3.0 1.0 3 46
r 0.323279 6 4 tcp 1040 ------- 0 0.0 5.0 17 38
+ 0.323279 4 5 tcp 1040 ------- 0 0.0 5.0 17 38
- 0.323279 4 5 tcp 1040 ------- 0 0.0 5.0 16 34
r 0.323364 6 4 tcp 1040 ------- 0 0.0 5.0 18 39
+ 0.323364 4 5 tcp 1040 ------- 0 0.0 5.0 18 39
r 0.324124 3 2 ack 40 ------- 0 3.0 1.0 3 46
h 0.324124 2 6 ack 40 ------- 0 3.0 1.0 3 46
r 0.324279 4 5 tcp 1040 ------- 0 0.0 5.0 15 33
+ 0.324279 5 4 ack 40 ------- 0 5.0 0.0 11 47
- 0.324279 5 4 ack 40 ------- 0 5.0 0.0 11 47
r 0.325599 5 4 ack 40 ------- 0 5.0 0.0 11 47
h 0.325599 4 6 ack 40 ------- 0 5.0 0.0 11 47
+ 0.326461 4 6 ack 40 ------- 0 5.0 0.0 11 43
- 0.326461 4 6 ack 40 ------- 0 5.0 0.0 11 43
r 0.328151 6 0 ack 40 ------- 0 5.0 0.0 11 40
h 0.328151 0 6 tcp 1040 ------- 0 0.0 5.0 23 48
h 0.328151 0 6 tcp 1040 ------- 0 0.0 5.0 24 49
+ 0.329831 0 6 tcp 1040 ------- 0 0.0 5.0 21 44
- 0.329831 0 6 tcp 1040 ------- 0 0.0 5.0 21 44
+ 0.329831 0 6 tcp 1040 ------- 0 0.0 5.0 22 45
- 0.329916 0 6 tcp 1040 ------- 0 0.0 5.0 22 45
- 0.330124 2 3 tcp 1040 ------- 0 1.0 3.0 5 36
r 0.331124 2 3 tcp 1040 ------- 0 1.0 3.0 4 32
+ 0.331124 3 2 ack 40 ------- 0 3.0 1.0 4 50
- 0.331124 3 2 ack 40 ------- 0 3.0 1.0 4 50
r 0.331599 6 4 tcp 1040 ------- 0 0.0 5.0 19 41
+ 0.331599 4 5 tcp 1040 ------- 0 0.0 5.0 19 41
d 0.331599 4 5 tcp 1040 ------- 0 0.0 5.0 19 41
- 0.331599 4 5 tcp 1040 ------- 0 0.0 5.0 17 38
r 0.331684 6 4 tcp 1040 ------- 0 0.0 5.0 20 42
+ 0.331684 4 5 tcp 1040 ------- 0 0.0 5.0 20 42
r 0.332444 3 2 ack 40 ------- 0 3.0 1.0 4 50
h 0.332444 2 6 ack 40 ------- 0 3.0 1.0 4 50
r 0.332599 4 5 tcp 1040 ------- 0 0.0 5.0 16 34
+ 0.332599 5 4 ack 40 ------- 0 5.0 0.0 11 51
- 0.332599 5 4 ack 40 ------- 0 5.0 0.0 11 51
r 0.333919 5 4 ack 40 ------- 0 5.0 0.0 11 51
h 0.333919 4 6 ack 40 ------- 0 5.0 0.0 11 51
+ 0.334124 2 6 ack 40 ------- 0 3.0 1.0 3 46
- 0.334124 2 6 ack 40 ------- 0 3.0 1.0 3 46
+ 0.335599 4 6 ack 40 ------- 0 5.0 0.0 11 47
- 0.335599 4 6 ack 40 ------- 0 5.0 0.0 11 47
r 0.336471 6 0 ack 40 ------- 0 5.0 0.0 11 43
h 0.336471 0 6 tcp 1040 ------- 0 0.0 5.0 25 52
+ 0.338151 0 6 tcp 1040 ------- 0 0.0 5.0 23 48
- 0.338151 0 6 tcp 1040 ------- 0 0.0 5.0 23 48
+ 0.338151 0 6 tcp 1040 ------- 0 0.0 5.0 24 49
- 0.338236 0 6 tcp 1040 ------- 0 0.0 5.0 24 49
- 0.338444 2 3 tcp 1040 ------- 0 1.0 3.0 6 37
r 0.339444 2 3 tcp 1040 ------- 0 1.0 3.0 5 36
+ 0.339444 3 2 ack 40 ------- 0 3.0 1.0 5 53
- 0.339444 3 2 ack 40 ------- 0 3.0 1.0 5 53
r 0.339919 6 4 tcp 1040 ------- 0 0.0 5.0 21 44
+ 0.339919 4 5 tcp 1040 ------- 0 0.0 5.0 21 44
d 0.339919 4 5 tcp 1040 ------- 0 0.0 5.0 21 44
- 0.339919 4 5 tcp 1040 ------- 0 0.0 5.0 18 39
r 0.340004 6 4 tcp 1040 ------- 0 0.0 5.0 22 45
+ 0.340004 4 5 tcp 1040 ------- 0 0.0 5.0 22 45
r 0.340764 3 2 ack 40 ------- 0 3.0 1.0 5 53
h 0.340764 2 6 ack 40 ------- 0 3.0 1.0 5 53
r 0.340919 4 5 tcp 1040 ------- 0 0.0 5.0 17 38
+ 0.340919 5 4 ack 40 ------- 0 5.0 0.0 11 54
- 0.340919 5 4 ack 40 ------- 0 5.0 0.0 11 54
r 0.342239 5 4 ack 40 ------- 0 5.0 0.0 11 54
h 0.342239 4 6 ack 40 ------- 0 5.0 0.0 11 54
+ 0.342444 2 6 ack 40 ------- 0 3.0 1.0 4 50
- 0.342444 2 6 ack 40 ------- 0 3.0 1.0 4 50
+ 0.343919 4 6 ack 40 ------- 0 5.0 0.0 11 51
- 0.343919 4 6 ack 40 ------- 0 5.0 0.0 11 51
r 0.344133 6 1 ack 40 ------- 0 3.0 1.0 3 46
h 0.344133 1 6 tcp 1040 ------- 0 1.0 3.0 7 55
h 0.344133 1 6 tcp 1040 ------- 0 1.0 3.0 8 56
r 0.345608 6 0 ack 40 ------- 0 5.0 0.0 11 47
h 0.345608 0 6 tcp 1040 ------- 0 0.0 5.0 26 57
+ 0.346471 0 6 tcp 1040 ------- 0 0.0 5.0 25 52
- 0.346471 0 6 tcp 1040 ------- 0 0.0 5.0 25 52
r 0.347764 2 3 tcp 1040 ------- 0 1.0 3.0 6 37
+ 0.347764 3 2 ack 40 ------- 0 3.0 1.0 6 58
- 0.347764 3 2 ack 40 ------- 0 3.0 1.0 6 58
r 0.348239 6 4 tcp 1040 ------- 0 0.0 5.0 23 48
+ 0.348239 4 5 tcp 1040 ------- 0 0.0 5.0 23 48
d 0.348239 4 5 tcp 1040 ------- 0 0.0 5.0 23 48
- 0.348239 4 5 tcp 1040 ------- 0 0.0 5.0 20 42
r 0.348324 6 4 tcp 1040 ------- 0 0.0 5.0 24 49
+ 0.348324 4 5 tcp 1040 ------- 0 0.0 5.0 24 49
r 0.349084 3 2 ack 40 ------- 0 3.0 1.0 6 58
h 0.349084 2 6 ack 40 ------- 0 3.0 1.0 6 58
r 0.349239 4 5 tcp 1040 ------- 0 0.0 5.0 18 39
+ 0.349239 5 4 ack 40 ------- 0 5.0 0.0 11 59
- 0.349239 5 4 ack 40 ------- 0 5.0 0.0 11 59
r 0.350559 5 4 ack 40 ------- 0 5.0 0.0 11 59
h 0.350559 4 6 ack 40 ------- 0 5.0 0.0 11 59
+ 0.350764 2 6 ack 40 ------- 0 3.0 1.0 5 53
- 0.350764 2 6 ack 40 ------- 0 3.0 1.0 5 53
+ 0.352239 4 6 ack 40 ------- 0 5.0 0.0 11 54
- 0.352239 4 6 ack 40 ------- 0 5.0 0.0 11 54
r 0.352453 6 1 ack 40 ------- 0 3.0 1.0 4 50
h 0.352453 1 6 tcp 1040 ------- 0 1.0 3.0 9 60
h 0.352453 1 6 tcp 1040 ------- 0 1.0 3.0 10 61
r 0.353928 6 0 ack 40 ------- 0 5.0 0.0 11 51
h 0.353928 0 6 tcp 1040 ---A--- 0 0.0 5.0 12 62
+ 0.354133 1 6 tcp 1040 ------- 0 1.0 3.0 7 55
- 0.354133 1 6 tcp 1040 ------- 0 1.0 3.0 7 55
+ 0.354133 1 6 tcp 1040 ------- 0 1.0 3.0 8 56
- 0.354218 1 6 tcp 1040 ------- 0 1.0 3.0 8 56
+ 0.355608 0 6 tcp 1040 ------- 0 0.0 5.0 26 57
- 0.355608 0 6 tcp 1040 ------- 0 0.0 5.0 26 57
r 0.356559 6 4 tcp 1040 ------- 0 0.0 5.0 25 52
+ 0.356559 4 5 tcp 1040 ------- 0 0.0 5.0 25 52
d 0.356559 4 5 tcp 1040 ------- 0 0.0 5.0 25 52
- 0.356559 4 5 tcp 1040 ------- 0 0.0 5.0 22 45
r 0.357559 4 5 tcp 1040 ------- 0 0.0 5.0 20 42
+ 0.357559 5 4 ack 40 ------- 0 5.0 0.0 11 63
- 0.357559 5 4 ack 40 ------- 0 5.0 0.0 11 63
r 0.358879 5 4 ack 40 ------- 0 5.0 0.0 11 63
h 0.358879 4 6 ack 40 ------- 0 5.0 0.0 11 63
+ 0.359084 2 6 ack 40 ------- 0 3.0 1.0 6 58
- 0.359084 2 6 ack 40 ------- 0 3.0 1.0 6 58
+ 0.360559 4 6 ack 40 ------- 0 5.0 0.0 11 59
- 0.360559 4 6 ack 40 ------- 0 5.0 0.0 11 59
r 0.360773 6 1 ack 40 ------- 0 3.0 1.0 5 53
h 0.360773 1 6 tcp 1040 ------- 0 1.0 3.0 11 64
h 0.360773 1 6 tcp 1040 ------- 0 1.0 3.0 12 65
r 0.362248 6 0 ack 40 ------- 0 5.0 0.0 11 54
+ 0.362453 1 6 tcp 1040 ------- 0 1.0 3.0 9 60
- 0.362453 1 6 tcp 1040 ------- 0 1.0 3.0 9 60
+ 0.362453 1 6 tcp 1040 ------- 0 1.0 3.0 10 61
- 0.362538 1 6 tcp 1040 ------- 0 1.0 3.0 10 61
+ 0.363928 0 6 tcp 1040 ---A--- 0 0.0 5.0 12 62
- 0.363928 0 6 tcp 1040 ---A--- 0 0.0 5.0 12 62
r 0.364221 6 2 tcp 1040 ------- 0 1.0 3.0 7 55
+ 0.364221 2 3 tcp 1040 ------- 0 1.0 3.0 7 55
- 0.364221 2 3 tcp 1040 ------- 0 1.0 3.0 7 55
r 0.364307 6 2 tcp 1040 ------- 0 1.0 3.0 8 56
+ 0.364307 2 3 tcp 1040 ------- 0 1.0 3.0 8 56
- 0.364879 4 5 tcp 1040 ------- 0 0.0 5.0 24 49
r 0.365696 6 4 tcp 1040 ------- 0 0.0 5.0 26 57
+ 0.365696 4 5 tcp 1040 ------- 0 0.0 5.0 26 57
r 0.365879 4 5 tcp 1040 ------- 0 0.0 5.0 22 45
+ 0.365879 5 4 ack 40 ------- 0 5.0 0.0 11 66
- 0.365879 5 4 ack 40 ------- 0 5.0 0.0 11 66
r 0.367199 5 4 ack 40 ------- 0 5.0 0.0 11 66
h 0.367199 4 6 ack 40 ------- 0 5.0 0.0 11 66
+ 0.368879 4 6 ack 40 ------- 0 5.0 0.0 11 63
- 0.368879 4 6 ack 40 ------- 0 5.0 0.0 11 63
r 0.369093 6 1 ack 40 ------- 0 3.0 1.0 6 58
h 0.369093 1 6 tcp 1040 ------- 0 1.0 3.0 13 67
h 0.369093 1 6 tcp 1040 ------- 0 1.0 3.0 14 68
r 0.370568 6 0 ack 40 ------- 0 5.0 0.0 11 59
+ 0.370773 1 6 tcp 1040 ------- 0 1.0 3.0 11 64
- 0.370773 1 6 tcp 1040 ------- 0 1.0 3.0 11 64
+ 0.370773 1 6 tcp 1040 ------- 0 1.0 3.0 12 65
- 0.370858 1 6 tcp 1040 ------- 0 1.0 3.0 12 65
r 0.372541 6 2 tcp 1040 ------- 0 1.0 3.0 9 60
+ 0.372541 2 3 tcp 1040 ------- 0 1.0 3.0 9 60
- 0.372541 2 3 tcp 1040 ------- 0 1.0 3.0 8 56
r 0.372627 6 2 tcp 1040 ------- 0 1.0 3.0 10 61
+ 0.372627 2 3 tcp 1040 ------- 0 1.0 3.0 10 61
- 0.373199 4 5 tcp 1040 ------- 0 0.0 5.0 26 57
r 0.373541 2 3 tcp 1040 ------- 0 1.0 3.0 7 55
+ 0.373541 3 2 ack 40 ------- 0 3.0 1.0 7 69
- 0.373541 3 2 ack 40 ------- 0 3.0 1.0 7 69
r 0.374016 6 4 tcp 1040 ---A--- 0 0.0 5.0 12 62
+ 0.374016 4 5 tcp 1040 ---A--- 0 0.0 5.0 12 62
r 0.374199 4 5 tcp 1040 ------- 0 0.0 5.0 24 49
+ 0.374199 5 4 ack 40 ------- 0 5.0 0.0 11 70
- 0.374199 5 4 ack 40 ------- 0 5.0 0.0 11 70
r 0.374861 3 2 ack 40 ------- 0 3.0 1.0 7 69
h 0.374861 2 6 ack 40 ------- 0 3.0 1.0 7 69
r 0.375519 5 4 ack 40 ------- 0 5.0 0.0 11 70
h 0.375519 4 6 ack 40 ------- 0 5.0 0.0 11 70
+ 0.377199 4 6 ack 40 ------- 0 5.0 0.0 11 66
- 0.377199 4 6 ack 40 ------- 0 5.0 0.0 11 66
r 0.378888 6 0 ack 40 ------- 0 5.0 0.0 11 63
+ 0.379093 1 6 tcp 1040 ------- 0 1.0 3.0 13 67
- 0.379093 1 6 tcp 1040 ------- 0 1.0 3.0 13 67
+ 0.379093 1 6 tcp 1040 ------- 0 1.0 3.0 14 68
- 0.379178 1 6 tcp 1040 ------- 0 1.0 3.0 14 68
r 0.380861 6 2 tcp 1040 ------- 0 1.0 3.0 11 64
+ 0.380861 2 3 tcp 1040 ------- 0 1.0 3.0 11 64
- 0.380861 2 3 tcp 1040 ------- 0 1.0 3.0 9 60
r 0.380947 6 2 tcp 1040 ------- 0 1.0 3.0 12 65
+ 0.380947 2 3 tcp 1040 ------- 0 1.0 3.0 12 65
- 0.381519 4 5 tcp 1040 ---A--- 0 0.0 5.0 12 62
r 0.381861 2 3 tcp 1040 ------- 0 1.0 3.0 8 56
+ 0.381861 3 2 ack 40 ------- 0 3.0 1.0 8 71
- 0.381861 3 2 ack 40 ------- 0 3.0 1.0 8 71
r 0.382519 4 5 tcp 1040 ------- 0 0.0 5.0 26 57
+ 0.382519 5 4 ack 40 ------- 0 5.0 0.0 11 72
- 0.382519 5 4 ack 40 ------- 0 5.0 0.0 11 72
r 0.383181 3 2 ack 40 ------- 0 3.0 1.0 8 71
h 0.383181 2 6 ack 40 ------- 0 3.0 1.0 8 71
r 0.383839 5 4 ack 40 ------- 0 5.0 0.0 11 72
h 0.383839 4 6 ack 40 ------- 0 5.0 0.0 11 72
+ 0.384861 2 6 ack 40 ------- 0 3.0 1.0 7 69
- 0.384861 2 6 ack 40 ------- 0 3.0 1.0 7 69
+ 0.385519 4 6 ack 40 ------- 0 5.0 0.0 11 70
- 0.385519 4 6 ack 40 ------- 0 5.0 0.0 11 70
r 0.387208 6 0 ack 40 ------- 0 5.0 0.0 11 66
r 0.389181 6 2 tcp 1040 ------- 0 1.0 3.0 13 67
+ 0.389181 2 3 tcp 1040 ------- 0 1.0 3.0 13 67
- 0.389181 2 3 tcp 1040 ------- 0 1.0 3.0 10 61
r 0.389267 6 2 tcp 1040 ------- 0 1.0 3.0 14 68
+ 0.389267 2 3 tcp 1040 ------- 0 1.0 3.0 14 68
r 0.390181 2 3 tcp 1040 ------- 0 1.0 3.0 9 60
+ 0.390181 3 2 ack 40 ------- 0 3.0 1.0 9 73
- 0.390181 3 2 ack 40 ------- 0 3.0 1.0 9 73
r 0.390839 4 5 tcp 1040 ---A--- 0 0.0 5.0 12 62
+ 0.390839 5 4 ack 40 ------- 0 5.0 0.0 13 74
- 0.390839 5 4 ack 40 ------- 0 5.0 0.0 13 74
r 0.391501 3 2 ack 40 ------- 0 3.0 1.0 9 73
h 0.391501 2 6 ack 40 ------- 0 3.0 1.0 9 73
r 0.392159 5 4 ack 40 ------- 0 5.0 0.0 13 74
h 0.392159 4 6 ack 40 ------- 0 5.0 0.0 13 74
+ 0.393181 2 6 ack 40 ------- 0 3.0 1.0 8 71
- 0.393181 2 6 ack 40 ------- 0 3.0 1.0 8 71
+ 0.393839 4 6 ack 40 ------- 0 5.0 0.0 11 72
- 0.393839 4 6 ack 40 ------- 0 5.0 0.0 11 72
r 0.394871 6 1 ack 40 ------- 0 3.0 1.0 7 69
h 0.394871 1 6 tcp 1040 ------- 0 1.0 3.0 15 75
h 0.394871 1 6 tcp 1040 ------- 0 1.0 3.0 16 76
r 0.395528 6 0 ack 40 ------- 0 5.0 0.0 11 70
- 0.397501 2 3 tcp 1040 ------- 0 1.0 3.0 11 64
r 0.398501 2 3 tcp 1040 ------- 0 1.0 3.0 10 61
+ 0.398501 3 2 ack 40 ------- 0 3.0 1.0 10 77
- 0.398501 3 2 ack 40 ------- 0 3.0 1.0 10 77
r 0.399821 3 2 ack 40 ------- 0 3.0 1.0 10 77
h 0.399821 2 6 ack 40 ------- 0 3.0 1.0 10 77
+ 0.401501 2 6 ack 40 ------- 0 3.0 1.0 9 73
- 0.401501 2 6 ack 40 ------- 0 3.0 1.0 9 73
+ 0.402159 4 6 ack 40 ------- 0 5.0 0.0 13 74
- 0.402159 4 6 ack 40 ------- 0 5.0 0.0 13 74
r 0.403191 6 1 ack 40 ------- 0 3.0 1.0 8 71
h 0.403191 1 6 tcp 1040 ------- 0 1.0 3.0 17 78
h 0.403191 1 6 tcp 1040 ------- 0 1.0 3.0 18 79
r 0.403848 6 0 ack 40 ------- 0 5.0 0.0 11 72
+ 0.404871 1 6 tcp 1040 ------- 0 1.0 3.0 15 75
- 0.404871 1 6 tcp 1040 ------- 0 1.0 3.0 15 75
+ 0.404871 1 6 tcp 1040 ------- 0 1.0 3.0 16 76
- 0.404956 1 6 tcp 1040 ------- 0 1.0 3.0 16 76
- 0.405821 2 3 tcp 1040 ------- 0 1.0 3.0 12 65
r 0.406821 2 3 tcp 1040 ------- 0 1.0 3.0 11 64
+ 0.406821 3 2 ack 40 ------- 0 3.0 1.0 11 80
- 0.406821 3 2 ack 40 ------- 0 3.0 1.0 11 80
r 0.408141 3 2 ack 40 ------- 0 3.0 1.0 11 80
h 0.408141 2 6 ack 40 ------- 0 3.0 1.0 11 80
+ 0.409821 2 6 ack 40 ------- 0 3.0 1.0 10 77
- 0.409821 2 6 ack 40 ------- 0 3.0 1.0 10 77
r 0.411511 6 1 ack 40 ------- 0 3.0 1.0 9 73
h 0.411511 1 6 tcp 1040 ------- 0 1.0 3.0 19 81
h 0.411511 1 6 tcp 1040 ------- 0 1.0 3.0 20 82
r 0.412168 6 0 ack 40 ------- 0 5.0 0.0 13 74
h 0.412168 0 6 tcp 1040 ------- 0 0.0 5.0 14 83
h 0.412168 0 6 tcp 1040 ------- 0 0.0 5.0 15 84
+ 0.413191 1 6 tcp 1040 ------- 0 1.0 3.0 17 78
- 0.413191 1 6 tcp 1040 ------- 0 1.0 3.0 17 78
+ 0.413191 1 6 tcp 1040 ------- 0 1.0 3.0 18 79
- 0.413276 1 6 tcp 1040 ------- 0 1.0 3.0 18 79
- 0.414141 2 3 tcp 1040 ------- 0 1.0 3.0 13 67
r 0.414959 6 2 tcp 1040 ------- 0 1.0 3.0 15 75
+ 0.414959 2 3 tcp 1040 ------- 0 1.0 3.0 15 75
r 0.415044 6 2 tcp 1040 ------- 0 1.0 3.0 16 76
+ 0.415044 2 3 tcp 1040 ------- 0 1.0 3.0 16 76
r 0.415141 2 3 tcp 1040 ------- 0 1.0 3.0 12 65
+ 0.415141 3 2 ack 40 ------- 0 3.0 1.0 12 85
- 0.415141 3 2 ack 40 ------- 0 3.0 1.0 12 85
r 0.416461 3 2 ack 40 ------- 0 3.0 1.0 12 85
h 0.416461 2 6 ack 40 ------- 0 3.0 1.0 12 85
+ 0.418141 2 6 ack 40 ------- 0 3.0 1.0 11 80
- 0.418141 2 6 ack 40 ------- 0 3.0 1.0 11 80
r 0.419831 6 1 ack 40 ------- 0 3.0 1.0 10 77
h 0.419831 1 6 tcp 1040 ------- 0 1.0 3.0 21 86
h 0.419831 1 6 tcp 1040 ------- 0 1.0 3.0 22 87
+ 0.421511 1 6 tcp 1040 ------- 0 1.0 3.0 19 81
- 0.421511 1 6 tcp 1040 ------- 0 1.0 3.0 19 81
+ 0.421511 1 6 tcp 1040 ------- 0 1.0 3.0 20 82
- 0.421596 1 6 tcp 1040 ------- 0 1.0 3.0 20 82
+ 0.422168 0 6 tcp 1040 ------- 0 0.0 5.0 14 83
- 0.422168 0 6 tcp 1040 ------- 0 0.0 5.0 14 83
+ 0.422168 0 6 tcp 1040 ------- 0 0.0 5.0 15 84
- 0.422253 0 6 tcp 1040 ------- 0 0.0 5.0 15 84
- 0.422461 2 3 tcp 1040 ------- 0 1.0 3.0 14 68
r 0.423279 6 2 tcp 1040 ------- 0 1.0 3.0 17 78
+ 0.423279 2 3 tcp 1040 ------- 0 1.0 3.0 17 78
r 0.423364 6 2 tcp 1040 ------- 0 1.0 3.0 18 79
+ 0.423364 2 3 tcp 1040 ------- 0 1.0 3.0 18 79
r 0.423461 2 3 tcp 1040 ------- 0 1.0 3.0 13 67
+ 0.423461 3 2 ack 40 ------- 0 3.0 1.0 13 88
- 0.423461 3 2 ack 40 ------- 0 3.0 1.0 13 88
r 0.424781 3 2 ack 40 ------- 0 3.0 1.0 13 88
h 0.424781 2 6 ack 40 ------- 0 3.0 1.0 13 88
+ 0.426461 2 6 ack 40 ------- 0 3.0 1.0 12 85
- 0.426461 2 6 ack 40 ------- 0 3.0 1.0 12 85
r 0.428151 6 1 ack 40 ------- 0 3.0 1.0 11 80
h 0.428151 1 6 tcp 1040 ------- 0 1.0 3.0 23 89
h 0.428151 1 6 tcp 1040 ------- 0 1.0 3.0 24 90
+ 0.429831 1 6 tcp 1040 ------- 0 1.0 3.0 21 86
- 0.429831 1 6 tcp 1040 ------- 0 1.0 3.0 21 86
+ 0.429831 1 6 tcp 1040 ------- 0 1.0 3.0 22 87
- 0.429916 1 6 tcp 1040 ------- 0 1.0 3.0 22 87
- 0.430781 2 3 tcp 1040 ------- 0 1.0 3.0 15 75
r 0.431599 6 2 tcp 1040 ------- 0 1.0 3.0 19 81
+ 0.431599 2 3 tcp 1040 ------- 0 1.0 3.0 19 81
r 0.431684 6 2 tcp 1040 ------- 0 1.0 3.0 20 82
+ 0.431684 2 3 tcp 1040 ------- 0 1.0 3.0 20 82
d 0.431684 2 3 tcp 1040 ------- 0 1.0 3.0 20 82
r 0.431781 2 3 tcp 1040 ------- 0 1.0 3.0 14 68
+ 0.431781 3 2 ack 40 ------- 0 3.0 1.0 14 91
- 0.431781 3 2 ack 40 ------- 0 3.0 1.0 14 91
r 0.432256 6 4 tcp 1040 ------- 0 0.0 5.0 14 83
+ 0.432256 4 5 tcp 1040 ------- 0 0.0 5.0 14 83
- 0.432256 4 5 tcp 1040 ------- 0 0.0 5.0 14 83
r 0.432342 6 4 tcp 1040 ------- 0 0.0 5.0 15 84
+ 0.432342 4 5 tcp 1040 ------- 0 0.0 5.0 15 84
r 0.433101 3 2 ack 40 ------- 0 3.0 1.0 14 91
h 0.433101 2 6 ack 40 ------- 0 3.0 1.0 14 91
+ 0.434781 2 6 ack 40 ------- 0 3.0 1.0 13 88
- 0.434781 2 6 ack 40 ------- 0 3.0 1.0 13 88
r 0.436471 6 1 ack 40 ------- 0 3.0 1.0 12 85
h 0.436471 1 6 tcp 1040 ------- 0 1.0 3.0 25 92
h 0.436471 1 6 tcp 1040 ------- 0 1.0 3.0 26 93
+ 0.438151 1 6 tcp 1040 ------- 0 1.0 3.0 23 89
- 0.438151 1 6 tcp 1040 ------- 0 1.0 3.0 23 89
+ 0.438151 1 6 tcp 1040 ------- 0 1.0 3.0 24 90
- 0.438236 1 6 tcp 1040 ------- 0 1.0 3.0 24 90
- 0.439101 2 3 tcp 1040 ------- 0 1.0 3.0 16 76
r 0.439919 6 2 tcp 1040 ------- 0 1.0 3.0 21 86
+ 0.439919 2 3 tcp 1040 ------- 0 1.0 3.0 21 86
r 0.440004 6 2 tcp 1040 ------- 0 1.0 3.0 22 87
+ 0.440004 2 3 tcp 1040 ------- 0 1.0 3.0 22 87
d 0.440004 2 3 tcp 1040 ------- 0 1.0 3.0 22 87
r 0.440101 2 3 tcp 1040 ------- 0 1.0 3.0 15 75
+ 0.440101 3 2 ack 40 ------- 0 3.0 1.0 15 94
- 0.440101 3 2 ack 40 ------- 0 3.0 1.0 15 94
- 0.440576 4 5 tcp 1040 ------- 0 0.0 5.0 15 84
r 0.441421 3 2 ack 40 ------- 0 3.0 1.0 15 94
h 0.441421 2 6 ack 40 ------- 0 3.0 1.0 15 94
r 0.441576 4 5 tcp 1040 ------- 0 0.0 5.0 14 83
+ 0.441576 5 4 ack 40 ------- 0 5.0 0.0 18 95
- 0.441576 5 4 ack 40 ------- 0 5.0 0.0 18 95
r 0.442896 5 4 ack 40 ------- 0 5.0 0.0 18 95
h 0.442896 4 6 ack 40 ------- 0 5.0 0.0 18 95
+ 0.443101 2 6 ack 40 ------- 0 3.0 1.0 14 91
- 0.443101 2 6 ack 40 ------- 0 3.0 1.0 14 91
r 0.444791 6 1 ack 40 ------- 0 3.0 1.0 13 88
h 0.444791 1 6 tcp 1040 ------- 0 1.0 3.0 27 96
h 0.444791 1 6 tcp 1040 ------- 0 1.0 3.0 28 97
+ 0.446471 1 6 tcp 1040 ------- 0 1.0 3.0 25 92
- 0.446471 1 6 tcp 1040 ------- 0 1.0 3.0 25 92
+ 0.446471 1 6 tcp 1040 ------- 0 1.0 3.0 26 93
- 0.446556 1 6 tcp 1040 ------- 0 1.0 3.0 26 93
- 0.447421 2 3 tcp 1040 ------- 0 1.0 3.0 17 78
r 0.448239 6 2 tcp 1040 ------- 0 1.0 3.0 23 89
+ 0.448239 2 3 tcp 1040 ------- 0 1.0 3.0 23 89
r 0.448324 6 2 tcp 1040 ------- 0 1.0 3.0 24 90
+ 0.448324 2 3 tcp 1040 ------- 0 1.0 3.0 24 90
d 0.448324 2 3 tcp 1040 ------- 0 1.0 3.0 24 90
r 0.448421 2 3 tcp 1040 ------- 0 1.0 3.0 16 76
+ 0.448421 3 2 ack 40 ------- 0 3.0 1.0 16 98
- 0.448421 3 2 ack 40 ------- 0 3.0 1.0 16 98
r 0.449741 3 2 ack 40 ------- 0 3.0 1.0 16 98
h 0.449741 2 6 ack 40 ------- 0 3.0 1.0 16 98