+ 0.1 0 1 cbr 210 ------- 0 0.0 2.0 0 0
- 0.1 0 1 cbr 210 ------- 0 0.0 2.0 0 0
r 0.10242 0 1 cbr 210 ------- 0 0.0 2.0 0 0
+ 0.10242 1 2 cbr 210 ------- 0 0.0 2.0 0 0
- 0.10242 1 2 cbr 210 ------- 0 0.0 2.0 0 0
+ 0.105 0 1 cbr 210 ------- 0 0.0 2.0 1 1
- 0.105 0 1 cbr 210 ------- 0 0.0 2.0 1 1
r 0.10742 0 1 cbr 210 ------- 0 0.0 2.0 1 1
+ 0.10742 1 2 cbr 210 ------- 0 0.0 2.0 1 1
+ 0.11 0 1 cbr 210 ------- 0 0.0 2.0 2 2
- 0.11 0 1 cbr 210 ------- 0 0.0 2.0 2 2
r 0.11242 0 1 cbr 210 ------- 0 0.0 2.0 2 2
+ 0.11242 1 2 cbr 210 ------- 0 0.0 2.0 2 2
+ 0.115 0 1 cbr 210 ------- 0 0.0 2.0 3 3
- 0.115 0 1 cbr 210 ------- 0 0.0 2.0 3 3
r 0.11742 0 1 cbr 210 ------- 0 0.0 2.0 3 3
+ 0.11742 1 2 cbr 210 ------- 0 0.0 2.0 3 3
- 0.11922 1 2 cbr 210 ------- 0 0.0 2.0 1 1
+ 0.12 0 1 cbr 210 ------- 0 0.0 2.0 4 4
- 0.12 0 1 cbr 210 ------- 0 0.0 2.0 4 4
r 0.12242 0 1 cbr 210 ------- 0 0.0 2.0 4 4
+ 0.12242 1 2 cbr 210 ------- 0 0.0 2.0 4 4
+ 0.125 0 1 cbr 210 ------- 0 0.0 2.0 5 5
- 0.125 0 1 cbr 210 ------- 0 0.0 2.0 5 5
r 0.12742 0 1 cbr 210 ------- 0 0.0 2.0 5 5
+ 0.12742 1 2 cbr 210 ------- 0 0.0 2.0 5 5
r 0.12922 1 2 cbr 210 ------- 0 0.0 2.0 0 0
+ 0.13 0 1 cbr 210 ------- 0 0.0 2.0 6 6
- 0.13 0 1 cbr 210 ------- 0 0.0 2.0 6 6
r 0.13242 0 1 cbr 210 ------- 0 0.0 2.0 6 6
+ 0.13242 1 2 cbr 210 ------- 0 0.0 2.0 6 6
+ 0.135 0 1 cbr 210 ------- 0 0.0 2.0 7 7
- 0.135 0 1 cbr 210 ------- 0 0.0 2.0 7 7
- 0.13602 1 2 cbr 210 ------- 0 0.0 2.0 2 2
r 0.13742 0 1 cbr 210 ------- 0 0.0 2.0 7 7
+ 0.13742 1 2 cbr 210 ------- 0 0.0 2.0 7 7
+ 0.14 0 1 cbr 210 ------- 0 0.0 2.0 8 8
- 0.14 0 1 cbr 210 ------- 0 0.0 2.0 8 8
r 0.14242 0 1 cbr 210 ------- 0 0.0 2.0 8 8
+ 0.14242 1 2 cbr 210 ------- 0 0.0 2.0 8 8
+ 0.145 0 1 cbr 210 ------- 0 0.0 2.0 9 9
- 0.145 0 1 cbr 210 ------- 0 0.0 2.0 9 9
r 0.14602 1 2 cbr 210 ------- 0 0.0 2.0 1 1
r 0.14742 0 1 cbr 210 ------- 0 0.0 2.0 9 9
+ 0.14742 1 2 cbr 210 ------- 0 0.0 2.0 9 9
+ 0.15 0 1 cbr 210 ------- 0 0.0 2.0 10 10
- 0.15 0 1 cbr 210 ------- 0 0.0 2.0 10 10
r 0.15242 0 1 cbr 210 ------- 0 0.0 2.0 10 10
+ 0.15242 1 2 cbr 210 ------- 0 0.0 2.0 10 10
- 0.15282 1 2 cbr 210 ------- 0 0.0 2.0 3 3
+ 0.155 0 1 cbr 210 ------- 0 0.0 2.0 11 11
- 0.155 0 1 cbr 210 ------- 0 0.0 2.0 11 11
r 0.15742 0 1 cbr 210 ------- 0 0.0 2.0 11 11
+ 0.15742 1 2 cbr 210 ------- 0 0.0 2.0 11 11
+ 0.16 0 1 cbr 210 ------- 0 0.0 2.0 12 12
- 0.16 0 1 cbr 210 ------- 0 0.0 2.0 12 12
r 0.16242 0 1 cbr 210 ------- 0 0.0 2.0 12 12
+ 0.16242 1 2 cbr 210 ------- 0 0.0 2.0 12 12
r 0.16282 1 2 cbr 210 ------- 0 0.0 2.0 2 2
+ 0.165 0 1 cbr 210 ------- 0 0.0 2.0 13 13
- 0.165 0 1 cbr 210 ------- 0 0.0 2.0 13 13
r 0.16742 0 1 cbr 210 ------- 0 0.0 2.0 13 13
+ 0.16742 1 2 cbr 210 ------- 0 0.0 2.0 13 13
- 0.16962 1 2 cbr 210 ------- 0 0.0 2.0 4 4
+ 0.17 0 1 cbr 210 ------- 0 0.0 2.0 14 14
- 0.17 0 1 cbr 210 ------- 0 0.0 2.0 14 14
r 0.17242 0 1 cbr 210 ------- 0 0.0 2.0 14 14
+ 0.17242 1 2 cbr 210 ------- 0 0.0 2.0 14 14
+ 0.175 0 1 cbr 210 ------- 0 0.0 2.0 15 15
- 0.175 0 1 cbr 210 ------- 0 0.0 2.0 15 15
r 0.17742 0 1 cbr 210 ------- 0 0.0 2.0 15 15
+ 0.17742 1 2 cbr 210 ------- 0 0.0 2.0 15 15
r 0.17962 1 2 cbr 210 ------- 0 0.0 2.0 3 3
+ 0.18 0 1 cbr 210 ------- 0 0.0 2.0 16 16
- 0.18 0 1 cbr 210 ------- 0 0.0 2.0 16 16
r 0.18242 0 1 cbr 210 ------- 0 0.0 2.0 16 16
+ 0.18242 1 2 cbr 210 ------- 0 0.0 2.0 16 16
+ 0.185 0 1 cbr 210 ------- 0 0.0 2.0 17 17
- 0.185 0 1 cbr 210 ------- 0 0.0 2.0 17 17
- 0.18642 1 2 cbr 210 ------- 0 0.0 2.0 5 5
r 0.18742 0 1 cbr 210 ------- 0 0.0 2.0 17 17
+ 0.18742 1 2 cbr 210 ------- 0 0.0 2.0 17 17
+ 0.19 0 1 cbr 210 ------- 0 0.0 2.0 18 18
- 0.19 0 1 cbr 210 ------- 0 0.0 2.0 18 18
r 0.19242 0 1 cbr 210 ------- 0 0.0 2.0 18 18
+ 0.19242 1 2 cbr 210 ------- 0 0.0 2.0 18 18
+ 0.195 0 1 cbr 210 ------- 0 0.0 2.0 19 19
- 0.195 0 1 cbr 210 ------- 0 0.0 2.0 19 19
r 0.19642 1 2 cbr 210 ------- 0 0.0 2.0 4 4
r 0.19742 0 1 cbr 210 ------- 0 0.0 2.0 19 19
+ 0.19742 1 2 cbr 210 ------- 0 0.0 2.0 19 19
+ 0.2 0 1 cbr 210 ------- 0 0.0 2.0 20 20
- 0.2 0 1 cbr 210 ------- 0 0.0 2.0 20 20
r 0.20242 0 1 cbr 210 ------- 0 0.0 2.0 20 20
+ 0.20242 1 2 cbr 210 ------- 0 0.0 2.0 20 20
- 0.20322 1 2 cbr 210 ------- 0 0.0 2.0 6 6
+ 0.205 0 1 cbr 210 ------- 0 0.0 2.0 21 21
- 0.205 0 1 cbr 210 ------- 0 0.0 2.0 21 21
r 0.20742 0 1 cbr 210 ------- 0 0.0 2.0 21 21
+ 0.20742 1 2 cbr 210 ------- 0 0.0 2.0 21 21
+ 0.21 0 1 cbr 210 ------- 0 0.0 2.0 22 22
- 0.21 0 1 cbr 210 ------- 0 0.0 2.0 22 22
r 0.21242 0 1 cbr 210 ------- 0 0.0 2.0 22 22
+ 0.21242 1 2 cbr 210 ------- 0 0.0 2.0 22 22
r 0.21322 1 2 cbr 210 ------- 0 0.0 2.0 5 5
+ 0.215 0 1 cbr 210 ------- 0 0.0 2.0 23 23
- 0.215 0 1 cbr 210 ------- 0 0.0 2.0 23 23
r 0.21742 0 1 cbr 210 ------- 0 0.0 2.0 23 23
+ 0.21742 1 2 cbr 210 ------- 0 0.0 2.0 23 23
+ 0.22 0 1 cbr 210 ------- 0 0.0 2.0 24 24
- 0.22 0 1 cbr 210 ------- 0 0.0 2.0 24 24
- 0.22002 1 2 cbr 210 ------- 0 0.0 2.0 7 7
r 0.22242 0 1 cbr 210 ------- 0 0.0 2.0 24 24
+ 0.22242 1 2 cbr 210 ------- 0 0.0 2.0 24 24
+ 0.225 0 1 cbr 210 ------- 0 0.0 2.0 25 25
- 0.225 0 1 cbr 210 ------- 0 0.0 2.0 25 25
r 0.22742 0 1 cbr 210 ------- 0 0.0 2.0 25 25
+ 0.22742 1 2 cbr 210 ------- 0 0.0 2.0 25 25
+ 0.23 0 1 cbr 210 ------- 0 0.0 2.0 26 26
- 0.23 0 1 cbr 210 ------- 0 0.0 2.0 26 26
r 0.23002 1 2 cbr 210 ------- 0 0.0 2.0 6 6
r 0.23242 0 1 cbr 210 ------- 0 0.0 2.0 26 26
+ 0.23242 1 2 cbr 210 ------- 0 0.0 2.0 26 26
+ 0.235 0 1 cbr 210 ------- 0 0.0 2.0 27 27
- 0.235 0 1 cbr 210 ------- 0 0.0 2.0 27 27
- 0.23682 1 2 cbr 210 ------- 0 0.0 2.0 8 8
r 0.23742 0 1 cbr 210 ------- 0 0.0 2.0 27 27
+ 0.23742 1 2 cbr 210 ------- 0 0.0 2.0 27 27
+ 0.24 0 1 cbr 210 ------- 0 0.0 2.0 28 28
- 0.24 0 1 cbr 210 ------- 0 0.0 2.0 28 28
r 0.24242 0 1 cbr 210 ------- 0 0.0 2.0 28 28
+ 0.24242 1 2 cbr 210 ------- 0 0.0 2.0 28 28
+ 0.245 0 1 cbr 210 ------- 0 0.0 2.0 29 29
- 0.245 0 1 cbr 210 ------- 0 0.0 2.0 29 29
r 0.24682 1 2 cbr 210 ------- 0 0.0 2.0 7 7
r 0.24742 0 1 cbr 210 ------- 0 0.0 2.0 29 29
+ 0.24742 1 2 cbr 210 ------- 0 0.0 2.0 29 29
+ 0.25 0 1 cbr 210 ------- 0 0.0 2.0 30 30
- 0.25 0 1 cbr 210 ------- 0 0.0 2.0 30 30
r 0.25242 0 1 cbr 210 ------- 0 0.0 2.0 30 30
+ 0.25242 1 2 cbr 210 ------- 0 0.0 2.0 30 30
- 0.25362 1 2 cbr 210 ------- 0 0.0 2.0 9 9
+ 0.255 0 1 cbr 210 ------- 0 0.0 2.0 31 31
- 0.255 0 1 cbr 210 ------- 0 0.0 2.0 31 31
r 0.25742 0 1 cbr 210 ------- 0 0.0 2.0 31 31
+ 0.25742 1 2 cbr 210 ------- 0 0.0 2.0 31 31
+ 0.26 0 1 cbr 210 ------- 0 0.0 2.0 32 32
- 0.26 0 1 cbr 210 ------- 0 0.0 2.0 32 32
r 0.26242 0 1 cbr 210 ------- 0 0.0 2.0 32 32
+ 0.26242 1 2 cbr 210 ------- 0 0.0 2.0 32 32
r 0.26362 1 2 cbr 210 ------- 0 0.0 2.0 8 8
+ 0.265 0 1 cbr 210 ------- 0 0.0 2.0 33 33
- 0.265 0 1 cbr 210 ------- 0 0.0 2.0 33 33
r 0.26742 0 1 cbr 210 ------- 0 0.0 2.0 33 33
+ 0.26742 1 2 cbr 210 ------- 0 0.0 2.0 33 33
+ 0.27 0 1 cbr 210 ------- 0 0.0 2.0 34 34
- 0.27 0 1 cbr 210 ------- 0 0.0 2.0 34 34
- 0.27042 1 2 cbr 210 ------- 0 0.0 2.0 10 10
r 0.27242 0 1 cbr 210 ------- 0 0.0 2.0 34 34
+ 0.27242 1 2 cbr 210 ------- 0 0.0 2.0 34 34
+ 0.275 0 1 cbr 210 ------- 0 0.0 2.0 35 35
- 0.275 0 1 cbr 210 ------- 0 0.0 2.0 35 35
r 0.27742 0 1 cbr 210 ------- 0 0.0 2.0 35 35
+ 0.27742 1 2 cbr 210 ------- 0 0.0 2.0 35 35
+ 0.28 0 1 cbr 210 ------- 0 0.0 2.0 36 36
- 0.28 0 1 cbr 210 ------- 0 0.0 2.0 36 36
r 0.28042 1 2 cbr 210 ------- 0 0.0 2.0 9 9
r 0.28242 0 1 cbr 210 ------- 0 0.0 2.0 36 36
+ 0.28242 1 2 cbr 210 ------- 0 0.0 2.0 36 36
+ 0.285 0 1 cbr 210 ------- 0 0.0 2.0 37 37
- 0.285 0 1 cbr 210 ------- 0 0.0 2.0 37 37
- 0.28722 1 2 cbr 210 ------- 0 0.0 2.0 11 11
r 0.28742 0 1 cbr 210 ------- 0 0.0 2.0 37 37
+ 0.28742 1 2 cbr 210 ------- 0 0.0 2.0 37 37
+ 0.29 0 1 cbr 210 ------- 0 0.0 2.0 38 38
- 0.29 0 1 cbr 210 ------- 0 0.0 2.0 38 38
r 0.29242 0 1 cbr 210 ------- 0 0.0 2.0 38 38
+ 0.29242 1 2 cbr 210 ------- 0 0.0 2.0 38 38
+ 0.295 0 1 cbr 210 ------- 0 0.0 2.0 39 39
- 0.295 0 1 cbr 210 ------- 0 0.0 2.0 39 39
r 0.29722 1 2 cbr 210 ------- 0 0.0 2.0 10 10
r 0.29742 0 1 cbr 210 ------- 0 0.0 2.0 39 39
+ 0.29742 1 2 cbr 210 ------- 0 0.0 2.0 39 39
+ 0.3 0 1 cbr 210 ------- 0 0.0 2.0 40 40
- 0.3 0 1 cbr 210 ------- 0 0.0 2.0 40 40
r 0.30242 0 1 cbr 210 ------- 0 0.0 2.0 40 40
+ 0.30242 1 2 cbr 210 ------- 0 0.0 2.0 40 40
- 0.30402 1 2 cbr 210 ------- 0 0.0 2.0 12 12
+ 0.305 0 1 cbr 210 ------- 0 0.0 2.0 41 41
- 0.305 0 1 cbr 210 ------- 0 0.0 2.0 41 41
r 0.30742 0 1 cbr 210 ------- 0 0.0 2.0 41 41
+ 0.30742 1 2 cbr 210 ------- 0 0.0 2.0 41 41
+ 0.31 0 1 cbr 210 ------- 0 0.0 2.0 42 42
- 0.31 0 1 cbr 210 ------- 0 0.0 2.0 42 42
r 0.31242 0 1 cbr 210 ------- 0 0.0 2.0 42 42
+ 0.31242 1 2 cbr 210 ------- 0 0.0 2.0 42 42
r 0.31402 1 2 cbr 210 ------- 0 0.0 2.0 11 11
+ 0.315 0 1 cbr 210 ------- 0 0.0 2.0 43 43
- 0.315 0 1 cbr 210 ------- 0 0.0 2.0 43 43
r 0.31742 0 1 cbr 210 ------- 0 0.0 2.0 43 43
+ 0.31742 1 2 cbr 210 ------- 0 0.0 2.0 43 43
+ 0.32 0 1 cbr 210 ------- 0 0.0 2.0 44 44
- 0.32 0 1 cbr 210 ------- 0 0.0 2.0 44 44
- 0.32082 1 2 cbr 210 ------- 0 0.0 2.0 13 13
r 0.32242 0 1 cbr 210 ------- 0 0.0 2.0 44 44
+ 0.32242 1 2 cbr 210 ------- 0 0.0 2.0 44 44
+ 0.325 0 1 cbr 210 ------- 0 0.0 2.0 45 45
- 0.325 0 1 cbr 210 ------- 0 0.0 2.0 45 45
r 0.32742 0 1 cbr 210 ------- 0 0.0 2.0 45 45
+ 0.32742 1 2 cbr 210 ------- 0 0.0 2.0 45 45
+ 0.33 0 1 cbr 210 ------- 0 0.0 2.0 46 46
- 0.33 0 1 cbr 210 ------- 0 0.0 2.0 46 46
r 0.33082 1 2 cbr 210 ------- 0 0.0 2.0 12 12
r 0.33242 0 1 cbr 210 ------- 0 0.0 2.0 46 46
+ 0.33242 1 2 cbr 210 ------- 0 0.0 2.0 46 46
+ 0.335 0 1 cbr 210 ------- 0 0.0 2.0 47 47
- 0.335 0 1 cbr 210 ------- 0 0.0 2.0 47 47
r 0.33742 0 1 cbr 210 ------- 0 0.0 2.0 47 47
+ 0.33742 1 2 cbr 210 ------- 0 0.0 2.0 47 47
- 0.33762 1 2 cbr 210 ------- 0 0.0 2.0 14 14
+ 0.34 0 1 cbr 210 ------- 0 0.0 2.0 48 48
- 0.34 0 1 cbr 210 ------- 0 0.0 2.0 48 48
r 0.34242 0 1 cbr 210 ------- 0 0.0 2.0 48 48
+ 0.34242 1 2 cbr 210 ------- 0 0.0 2.0 48 48
+ 0.345 0 1 cbr 210 ------- 0 0.0 2.0 49 49
- 0.345 0 1 cbr 210 ------- 0 0.0 2.0 49 49
r 0.34742 0 1 cbr 210 ------- 0 0.0 2.0 49 49
+ 0.34742 1 2 cbr 210 ------- 0 0.0 2.0 49 49
r 0.34762 1 2 cbr 210 ------- 0 0.0 2.0 13 13
+ 0.35 0 1 cbr 210 ------- 0 0.0 2.0 50 50
- 0.35 0 1 cbr 210 ------- 0 0.0 2.0 50 50
r 0.35242 0 1 cbr 210 ------- 0 0.0 2.0 50 50
+ 0.35242 1 2 cbr 210 ------- 0 0.0 2.0 50 50
- 0.35442 1 2 cbr 210 ------- 0 0.0 2.0 15 15
+ 0.355 0 1 cbr 210 ------- 0 0.0 2.0 51 51
- 0.355 0 1 cbr 210 ------- 0 0.0 2.0 51 51
r 0.35742 0 1 cbr 210 ------- 0 0.0 2.0 51 51
+ 0.35742 1 2 cbr 210 ------- 0 0.0 2.0 51 51
+ 0.36 0 1 cbr 210 ------- 0 0.0 2.0 52 52
- 0.36 0 1 cbr 210 ------- 0 0.0 2.0 52 52
r 0.36242 0 1 cbr 210 ------- 0 0.0 2.0 52 52
+ 0.36242 1 2 cbr 210 ------- 0 0.0 2.0 52 52
r 0.36442 1 2 cbr 210 ------- 0 0.0 2.0 14 14
+ 0.365 0 1 cbr 210 ------- 0 0.0 2.0 53 53
- 0.365 0 1 cbr 210 ------- 0 0.0 2.0 53 53
r 0.36742 0 1 cbr 210 ------- 0 0.0 2.0 53 53
+ 0.36742 1 2 cbr 210 ------- 0 0.0 2.0 53 53
+ 0.37 0 1 cbr 210 ------- 0 0.0 2.0 54 54
- 0.37 0 1 cbr 210 ------- 0 0.0 2.0 54 54
- 0.37122 1 2 cbr 210 ------- 0 0.0 2.0 16 16
r 0.37242 0 1 cbr 210 ------- 0 0.0 2.0 54 54
+ 0.37242 1 2 cbr 210 ------- 0 0.0 2.0 54 54
+ 0.375 0 1 cbr 210 ------- 0 0.0 2.0 55 55
- 0.375 0 1 cbr 210 ------- 0 0.0 2.0 55 55
r 0.37742 0 1 cbr 210 ------- 0 0.0 2.0 55 55
+ 0.37742 1 2 cbr 210 ------- 0 0.0 2.0 55 55
+ 0.38 0 1 cbr 210 ------- 0 0.0 2.0 56 56
- 0.38 0 1 cbr 210 ------- 0 0.0 2.0 56 56
r 0.38122 1 2 cbr 210 ------- 0 0.0 2.0 15 15
r 0.38242 0 1 cbr 210 ------- 0 0.0 2.0 56 56
+ 0.38242 1 2 cbr 210 ------- 0 0.0 2.0 56 56
+ 0.385 0 1 cbr 210 ------- 0 0.0 2.0 57 57
- 0.385 0 1 cbr 210 ------- 0 0.0 2.0 57 57
r 0.38742 0 1 cbr 210 ------- 0 0.0 2.0 57 57
+ 0.38742 1 2 cbr 210 ------- 0 0.0 2.0 57 57
- 0.38802 1 2 cbr 210 ------- 0 0.0 2.0 17 17
+ 0.39 0 1 cbr 210 ------- 0 0.0 2.0 58 58
- 0.39 0 1 cbr 210 ------- 0 0.0 2.0 58 58
r 0.39242 0 1 cbr 210 ------- 0 0.0 2.0 58 58
+ 0.39242 1 2 cbr 210 ------- 0 0.0 2.0 58 58
+ 0.395 0 1 cbr 210 ------- 0 0.0 2.0 59 59
- 0.395 0 1 cbr 210 ------- 0 0.0 2.0 59 59
r 0.39742 0 1 cbr 210 ------- 0 0.0 2.0 59 59
+ 0.39742 1 2 cbr 210 ------- 0 0.0 2.0 59 59
r 0.39802 1 2 cbr 210 ------- 0 0.0 2.0 16 16
+ 0.4 0 1 cbr 210 ------- 0 0.0 2.0 60 60
- 0.4 0 1 cbr 210 ------- 0 0.0 2.0 60 60
r 0.40242 0 1 cbr 210 ------- 0 0.0 2.0 60 60
+ 0.40242 1 2 cbr 210 ------- 0 0.0 2.0 60 60
- 0.40482 1 2 cbr 210 ------- 0 0.0 2.0 18 18
+ 0.405 0 1 cbr 210 ------- 0 0.0 2.0 61 61
- 0.405 0 1 cbr 210 ------- 0 0.0 2.0 61 61
r 0.40742 0 1 cbr 210 ------- 0 0.0 2.0 61 61
+ 0.40742 1 2 cbr 210 ------- 0 0.0 2.0 61 61
+ 0.41 0 1 cbr 210 ------- 0 0.0 2.0 62 62
- 0.41 0 1 cbr 210 ------- 0 0.0 2.0 62 62
r 0.41242 0 1 cbr 210 ------- 0 0.0 2.0 62 62
+ 0.41242 1 2 cbr 210 ------- 0 0.0 2.0 62 62
r 0.41482 1 2 cbr 210 ------- 0 0.0 2.0 17 17
+ 0.415 0 1 cbr 210 ------- 0 0.0 2.0 63 63
- 0.415 0 1 cbr 210 ------- 0 0.0 2.0 63 63
r 0.41742 0 1 cbr 210 ------- 0 0.0 2.0 63 63
+ 0.41742 1 2 cbr 210 ------- 0 0.0 2.0 63 63
+ 0.42 0 1 cbr 210 ------- 0 0.0 2.0 64 64
- 0.42 0 1 cbr 210 ------- 0 0.0 2.0 64 64
- 0.42162 1 2 cbr 210 ------- 0 0.0 2.0 19 19
r 0.42242 0 1 cbr 210 ------- 0 0.0 2.0 64 64
+ 0.42242 1 2 cbr 210 ------- 0 0.0 2.0 64 64
+ 0.425 0 1 cbr 210 ------- 0 0.0 2.0 65 65
- 0.425 0 1 cbr 210 ------- 0 0.0 2.0 65 65
r 0.42742 0 1 cbr 210 ------- 0 0.0 2.0 65 65
+ 0.42742 1 2 cbr 210 ------- 0 0.0 2.0 65 65
+ 0.43 0 1 cbr 210 ------- 0 0.0 2.0 66 66
- 0.43 0 1 cbr 210 ------- 0 0.0 2.0 66 66
r 0.43162 1 2 cbr 210 ------- 0 0.0 2.0 18 18
r 0.43242 0 1 cbr 210 ------- 0 0.0 2.0 66 66
+ 0.43242 1 2 cbr 210 ------- 0 0.0 2.0 66 66
+ 0.435 0 1 cbr 210 ------- 0 0.0 2.0 67 67
- 0.435 0 1 cbr 210 ------- 0 0.0 2.0 67 67
r 0.43742 0 1 cbr 210 ------- 0 0.0 2.0 67 67
+ 0.43742 1 2 cbr 210 ------- 0 0.0 2.0 67 67
- 0.43842 1 2 cbr 210 ------- 0 0.0 2.0 20 20
+ 0.44 0 1 cbr 210 ------- 0 0.0 2.0 68 68
- 0.44 0 1 cbr 210 ------- 0 0.0 2.0 68 68
r 0.44242 0 1 cbr 210 ------- 0 0.0 2.0 68 68
+ 0.44242 1 2 cbr 210 ------- 0 0.0 2.0 68 68
+ 0.445 0 1 cbr 210 ------- 0 0.0 2.0 69 69
- 0.445 0 1 cbr 210 ------- 0 0.0 2.0 69 69
r 0.44742 0 1 cbr 210 ------- 0 0.0 2.0 69 69
+ 0.44742 1 2 cbr 210 ------- 0 0.0 2.0 69 69
r 0.44842 1 2 cbr 210 ------- 0 0.0 2.0 19 19
+ 0.45 0 1 cbr 210 ------- 0 0.0 2.0 70 70
- 0.45 0 1 cbr 210 ------- 0 0.0 2.0 70 70
r 0.45242 0 1 cbr 210 ------- 0 0.0 2.0 70 70
+ 0.45242 1 2 cbr 210 ------- 0 0.0 2.0 70 70
d 0.45242 1 2 cbr 210 ------- 0 0.0 2.0 70 70
+ 0.455 0 1 cbr 210 ------- 0 0.0 2.0 71 71
- 0.455 0 1 cbr 210 ------- 0 0.0 2.0 71 71
- 0.45522 1 2 cbr 210 ------- 0 0.0 2.0 21 21
r 0.45742 0 1 cbr 210 ------- 0 0.0 2.0 71 71
+ 0.45742 1 2 cbr 210 ------- 0 0.0 2.0 71 71
+ 0.46 0 1 cbr 210 ------- 0 0.0 2.0 72 72
- 0.46 0 1 cbr 210 ------- 0 0.0 2.0 72 72
r 0.46242 0 1 cbr 210 ------- 0 0.0 2.0 72 72
+ 0.46242 1 2 cbr 210 ------- 0 0.0 2.0 72 72
d 0.46242 1 2 cbr 210 ------- 0 0.0 2.0 72 72
+ 0.465 0 1 cbr 210 ------- 0 0.0 2.0 73 73
- 0.465 0 1 cbr 210 ------- 0 0.0 2.0 73 73
r 0.46522 1 2 cbr 210 ------- 0 0.0 2.0 20 20
r 0.46742 0 1 cbr 210 ------- 0 0.0 2.0 73 73
+ 0.46742 1 2 cbr 210 ------- 0 0.0 2.0 73 73
d 0.46742 1 2 cbr 210 ------- 0 0.0 2.0 73 73
+ 0.47 0 1 cbr 210 ------- 0 0.0 2.0 74 74
- 0.47 0 1 cbr 210 ------- 0 0.0 2.0 74 74
- 0.47202 1 2 cbr 210 ------- 0 0.0 2.0 22 22
r 0.47242 0 1 cbr 210 ------- 0 0.0 2.0 74 74
+ 0.47242 1 2 cbr 210 ------- 0 0.0 2.0 74 74
+ 0.475 0 1 cbr 210 ------- 0 0.0 2.0 75 75
- 0.475 0 1 cbr 210 ------- 0 0.0 2.0 75 75
r 0.47742 0 1 cbr 210 ------- 0 0.0 2.0 75 75
+ 0.47742 1 2 cbr 210 ------- 0 0.0 2.0 75 75
d 0.47742 1 2 cbr 210 ------- 0 0.0 2.0 75 75
+ 0.48 0 1 cbr 210 ------- 0 0.0 2.0 76 76
- 0.48 0 1 cbr 210 ------- 0 0.0 2.0 76 76
r 0.48202 1 2 cbr 210 ------- 0 0.0 2.0 21 21
r 0.48242 0 1 cbr 210 ------- 0 0.0 2.0 76 76
+ 0.48242 1 2 cbr 210 ------- 0 0.0 2.0 76 76
d 0.48242 1 2 cbr 210 ------- 0 0.0 2.0 76 76
+ 0.485 0 1 cbr 210 ------- 0 0.0 2.0 77 77
- 0.485 0 1 cbr 210 ------- 0 0.0 2.0 77 77
r 0.48742 0 1 cbr 210 ------- 0 0.0 2.0 77 77
+ 0.48742 1 2 cbr 210 ------- 0 0.0 2.0 77 77
d 0.48742 1 2 cbr 210 ------- 0 0.0 2.0 77 77
- 0.48882 1 2 cbr 210 ------- 0 0.0 2.0 23 23
+ 0.49 0 1 cbr 210 ------- 0 0.0 2.0 78 78
- 0.49 0 1 cbr 210 ------- 0 0.0 2.0 78 78
r 0.49242 0 1 cbr 210 ------- 0 0.0 2.0 78 78
+ 0.49242 1 2 cbr 210 ------- 0 0.0 2.0 78 78
+ 0.495 0 1 cbr 210 ------- 0 0.0 2.0 79 79
- 0.495 0 1 cbr 210 ------- 0 0.0 2.0 79 79
r 0.49742 0 1 cbr 210 ------- 0 0.0 2.0 79 79
+ 0.49742 1 2 cbr 210 ------- 0 0.0 2.0 79 79
d 0.49742 1 2 cbr 210 ------- 0 0.0 2.0 79 79
r 0.49882 1 2 cbr 210 ------- 0 0.0 2.0 22 22
+ 0.5 0 1 cbr 210 ------- 0 0.0 2.0 80 80
- 0.5 0 1 cbr 210 ------- 0 0.0 2.0 80 80
r 0.50242 0 1 cbr 210 ------- 0 0.0 2.0 80 80
+ 0.50242 1 2 cbr 210 ------- 0 0.0 2.0 80 80
d 0.50242 1 2 cbr 210 ------- 0 0.0 2.0 80 80
+ 0.505 0 1 cbr 210 ------- 0 0.0 2.0 81 81
- 0.505 0 1 cbr 210 ------- 0 0.0 2.0 81 81
- 0.50562 1 2 cbr 210 ------- 0 0.0 2.0 24 24
r 0.50742 0 1 cbr 210 ------- 0 0.0 2.0 81 81
+ 0.50742 1 2 cbr 210 ------- 0 0.0 2.0 81 81
+ 0.51 0 1 cbr 210 ------- 0 0.0 2.0 82 82
- 0.51 0 1 cbr 210 ------- 0 0.0 2.0 82 82
r 0.51242 0 1 cbr 210 ------- 0 0.0 2.0 82 82
+ 0.51242 1 2 cbr 210 ------- 0 0.0 2.0 82 82
d 0.51242 1 2 cbr 210 ------- 0 0.0 2.0 82 82
+ 0.515 0 1 cbr 210 ------- 0 0.0 2.0 83 83
- 0.515 0 1 cbr 210 ------- 0 0.0 2.0 83 83
r 0.51562 1 2 cbr 210 ------- 0 0.0 2.0 23 23
r 0.51742 0 1 cbr 210 ------- 0 0.0 2.0 83 83
+ 0.51742 1 2 cbr 210 ------- 0 0.0 2.0 83 83
d 0.51742 1 2 cbr 210 ------- 0 0.0 2.0 83 83
+ 0.52 0 1 cbr 210 ------- 0 0.0 2.0 84 84
- 0.52 0 1 cbr 210 ------- 0 0.0 2.0 84 84
- 0.52242 1 2 cbr 210 ------- 0 0.0 2.0 25 25
r 0.52242 0 1 cbr 210 ------- 0 0.0 2.0 84 84
+ 0.52242 1 2 cbr 210 ------- 0 0.0 2.0 84 84
+ 0.525 0 1 cbr 210 ------- 0 0.0 2.0 85 85
- 0.525 0 1 cbr 210 ------- 0 0.0 2.0 85 85
r 0.52742 0 1 cbr 210 ------- 0 0.0 2.0 85 85
+ 0.52742 1 2 cbr 210 ------- 0 0.0 2.0 85 85
d 0.52742 1 2 cbr 210 ------- 0 0.0 2.0 85 85
+ 0.53 0 1 cbr 210 ------- 0 0.0 2.0 86 86
- 0.53 0 1 cbr 210 ------- 0 0.0 2.0 86 86
r 0.53242 1 2 cbr 210 ------- 0 0.0 2.0 24 24
r 0.53242 0 1 cbr 210 ------- 0 0.0 2.0 86 86
+ 0.53242 1 2 cbr 210 ------- 0 0.0 2.0 86 86
d 0.53242 1 2 cbr 210 ------- 0 0.0 2.0 86 86
+ 0.535 0 1 cbr 210 ------- 0 0.0 2.0 87 87
- 0.535 0 1 cbr 210 ------- 0 0.0 2.0 87 87
r 0.53742 0 1 cbr 210 ------- 0 0.0 2.0 87 87
+ 0.53742 1 2 cbr 210 ------- 0 0.0 2.0 87 87
d 0.53742 1 2 cbr 210 ------- 0 0.0 2.0 87 87
- 0.53922 1 2 cbr 210 ------- 0 0.0 2.0 26 26
+ 0.54 0 1 cbr 210 ------- 0 0.0 2.0 88 88
- 0.54 0 1 cbr 210 ------- 0 0.0 2.0 88 88
r 0.54242 0 1 cbr 210 ------- 0 0.0 2.0 88 88
+ 0.54242 1 2 cbr 210 ------- 0 0.0 2.0 88 88
+ 0.545 0 1 cbr 210 ------- 0 0.0 2.0 89 89
- 0.545 0 1 cbr 210 ------- 0 0.0 2.0 89 89
r 0.54742 0 1 cbr 210 ------- 0 0.0 2.0 89 89
+ 0.54742 1 2 cbr 210 ------- 0 0.0 2.0 89 89
d 0.54742 1 2 cbr 210 ------- 0 0.0 2.0 89 89
r 0.54922 1 2 cbr 210 ------- 0 0.0 2.0 25 25
+ 0.55 0 1 cbr 210 ------- 0 0.0 2.0 90 90
- 0.55 0 1 cbr 210 ------- 0 0.0 2.0 90 90
r 0.55242 0 1 cbr 210 ------- 0 0.0 2.0 90 90
+ 0.55242 1 2 cbr 210 ------- 0 0.0 2.0 90 90
d 0.55242 1 2 cbr 210 ------- 0 0.0 2.0 90 90
+ 0.555 0 1 cbr 210 ------- 0 0.0 2.0 91 91
- 0.555 0 1 cbr 210 ------- 0 0.0 2.0 91 91
- 0.55602 1 2 cbr 210 ------- 0 0.0 2.0 27 27
r 0.55742 0 1 cbr 210 ------- 0 0.0 2.0 91 91
+ 0.55742 1 2 cbr 210 ------- 0 0.0 2.0 91 91
+ 0.56 0 1 cbr 210 ------- 0 0.0 2.0 92 92
- 0.56 0 1 cbr 210 ------- 0 0.0 2.0 92 92
r 0.56242 0 1 cbr 210 ------- 0 0.0 2.0 92 92
+ 0.56242 1 2 cbr 210 ------- 0 0.0 2.0 92 92
d 0.56242 1 2 cbr 210 ------- 0 0.0 2.0 92 92
+ 0.565 0 1 cbr 210 ------- 0 0.0 2.0 93 93
- 0.565 0 1 cbr 210 ------- 0 0.0 2.0 93 93
r 0.56602 1 2 cbr 210 ------- 0 0.0 2.0 26 26
r 0.56742 0 1 cbr 210 ------- 0 0.0 2.0 93 93
+ 0.56742 1 2 cbr 210 ------- 0 0.0 2.0 93 93
d 0.56742 1 2 cbr 210 ------- 0 0.0 2.0 93 93
+ 0.57 0 1 cbr 210 ------- 0 0.0 2.0 94 94
- 0.57 0 1 cbr 210 ------- 0 0.0 2.0 94 94
r 0.57242 0 1 cbr 210 ------- 0 0.0 2.0 94 94
+ 0.57242 1 2 cbr 210 ------- 0 0.0 2.0 94 94
d 0.57242 1 2 cbr 210 ------- 0 0.0 2.0 94 94
- 0.57282 1 2 cbr 210 ------- 0 0.0 2.0 28 28
+ 0.575 0 1 cbr 210 ------- 0 0.0 2.0 95 95
- 0.575 0 1 cbr 210 ------- 0 0.0 2.0 95 95
r 0.57742 0 1 cbr 210 ------- 0 0.0 2.0 95 95
+ 0.57742 1 2 cbr 210 ------- 0 0.0 2.0 95 95
+ 0.58 0 1 cbr 210 ------- 0 0.0 2.0 96 96
- 0.58 0 1 cbr 210 ------- 0 0.0 2.0 96 96
r 0.58242 0 1 cbr 210 ------- 0 0.0 2.0 96 96
+ 0.58242 1 2 cbr 210 ------- 0 0.0 2.0 96 96
d 0.58242 1 2 cbr 210 ------- 0 0.0 2.0 96 96
r 0.58282 1 2 cbr 210 ------- 0 0.0 2.0 27 27
+ 0.585 0 1 cbr 210 ------- 0 0.0 2.0 97 97
- 0.585 0 1 cbr 210 ------- 0 0.0 2.0 97 97
r 0.58742 0 1 cbr 210 ------- 0 0.0 2.0 97 97
+ 0.58742 1 2 cbr 210 ------- 0 0.0 2.0 97 97
d 0.58742 1 2 cbr 210 ------- 0 0.0 2.0 97 97
- 0.58962 1 2 cbr 210 ------- 0 0.0 2.0 29 29
+ 0.59 0 1 cbr 210 ------- 0 0.0 2.0 98 98
- 0.59 0 1 cbr 210 ------- 0 0.0 2.0 98 98
r 0.59242 0 1 cbr 210 ------- 0 0.0 2.0 98 98
+ 0.59242 1 2 cbr 210 ------- 0 0.0 2.0 98 98
+ 0.595 0 1 cbr 210 ------- 0 0.0 2.0 99 99
- 0.595 0 1 cbr 210 ------- 0 0.0 2.0 99 99
r 0.59742 0 1 cbr 210 ------- 0 0.0 2.0 99 99
+ 0.59742 1 2 cbr 210 ------- 0 0.0 2.0 99 99
d 0.59742 1 2 cbr 210 ------- 0 0.0 2.0 99 99
r 0.59962 1 2 cbr 210 ------- 0 0.0 2.0 28 28
+ 0.6 0 1 cbr 210 ------- 0 0.0 2.0 100 100
- 0.6 0 1 cbr 210 ------- 0 0.0 2.0 100 100
r 0.60242 0 1 cbr 210 ------- 0 0.0 2.0 100 100
+ 0.60242 1 2 cbr 210 ------- 0 0.0 2.0 100 100
d 0.60242 1 2 cbr 210 ------- 0 0.0 2.0 100 100
+ 0.605 0 1 cbr 210 ------- 0 0.0 2.0 101 101
- 0.605 0 1 cbr 210 ------- 0 0.0 2.0 101 101
- 0.60642 1 2 cbr 210 ------- 0 0.0 2.0 30 30
r 0.60742 0 1 cbr 210 ------- 0 0.0 2.0 101 101
+ 0.60742 1 2 cbr 210 ------- 0 0.0 2.0 101 101
+ 0.61 0 1 cbr 210 ------- 0 0.0 2.0 102 102
- 0.61 0 1 cbr 210 ------- 0 0.0 2.0 102 102
r 0.61242 0 1 cbr 210 ------- 0 0.0 2.0 102 102
+ 0.61242 1 2 cbr 210 ------- 0 0.0 2.0 102 102
d 0.61242 1 2 cbr 210 ------- 0 0.0 2.0 102 102
+ 0.615 0 1 cbr 210 ------- 0 0.0 2.0 103 103
- 0.615 0 1 cbr 210 ------- 0 0.0 2.0 103 103
r 0.61642 1 2 cbr 210 ------- 0 0.0 2.0 29 29
r 0.61742 0 1 cbr 210 ------- 0 0.0 2.0 103 103
+ 0.61742 1 2 cbr 210 ------- 0 0.0 2.0 103 103
d 0.61742 1 2 cbr 210 ------- 0 0.0 2.0 103 103
+ 0.62 0 1 cbr 210 ------- 0 0.0 2.0 104 104
- 0.62 0 1 cbr 210 ------- 0 0.0 2.0 104 104
r 0.62242 0 1 cbr 210 ------- 0 0.0 2.0 104 104
+ 0.62242 1 2 cbr 210 ------- 0 0.0 2.0 104 104
d 0.62242 1 2 cbr 210 ------- 0 0.0 2.0 104 104
- 0.62322 1 2 cbr 210 ------- 0 0.0 2.0 31 31
+ 0.625 0 1 cbr 210 ------- 0 0.0 2.0 105 105
- 0.625 0 1 cbr 210 ------- 0 0.0 2.0 105 105
r 0.62742 0 1 cbr 210 ------- 0 0.0 2.0 105 105
+ 0.62742 1 2 cbr 210 ------- 0 0.0 2.0 105 105
+ 0.63 0 1 cbr 210 ------- 0 0.0 2.0 106 106
- 0.63 0 1 cbr 210 ------- 0 0.0 2.0 106 106
r 0.63242 0 1 cbr 210 ------- 0 0.0 2.0 106 106
+ 0.63242 1 2 cbr 210 ------- 0 0.0 2.0 106 106
d 0.63242 1 2 cbr 210 ------- 0 0.0 2.0 106 106
r 0.63322 1 2 cbr 210 ------- 0 0.0 2.0 30 30
+ 0.635 0 1 cbr 210 ------- 0 0.0 2.0 107 107
- 0.635 0 1 cbr 210 ------- 0 0.0 2.0 107 107
r 0.63742 0 1 cbr 210 ------- 0 0.0 2.0 107 107
+ 0.63742 1 2 cbr 210 ------- 0 0.0 2.0 107 107
d 0.63742 1 2 cbr 210 ------- 0 0.0 2.0 107 107
+ 0.64 0 1 cbr 210 ------- 0 0.0 2.0 108 108
- 0.64 0 1 cbr 210 ------- 0 0.0 2.0 108 108
- 0.64002 1 2 cbr 210 ------- 0 0.0 2.0 32 32
r 0.64242 0 1 cbr 210 ------- 0 0.0 2.0 108 108
+ 0.64242 1 2 cbr 210 ------- 0 0.0 2.0 108 108
+ 0.645 0 1 cbr 210 ------- 0 0.0 2.0 109 109
- 0.645 0 1 cbr 210 ------- 0 0.0 2.0 109 109
r 0.64742 0 1 cbr 210 ------- 0 0.0 2.0 109 109
+ 0.64742 1 2 cbr 210 ------- 0 0.0 2.0 109 109
d 0.64742 1 2 cbr 210 ------- 0 0.0 2.0 109 109
+ 0.65 0 1 cbr 210 ------- 0 0.0 2.0 110 110
- 0.65 0 1 cbr 210 ------- 0 0.0 2.0 110 110
r 0.65002 1 2 cbr 210 ------- 0 0.0 2.0 31 31
r 0.65242 0 1 cbr 210 ------- 0 0.0 2.0 110 110
+ 0.65242 1 2 cbr 210 ------- 0 0.0 2.0 110 110
d 0.65242 1 2 cbr 210 ------- 0 0.0 2.0 110 110
+ 0.655 0 1 cbr 210 ------- 0 0.0 2.0 111 111
- 0.655 0 1 cbr 210 ------- 0 0.0 2.0 111 111
- 0.65682 1 2 cbr 210 ------- 0 0.0 2.0 33 33
r 0.65742 0 1 cbr 210 ------- 0 0.0 2.0 111 111
+ 0.65742 1 2 cbr 210 ------- 0 0.0 2.0 111 111
+ 0.66 0 1 cbr 210 ------- 0 0.0 2.0 112 112
- 0.66 0 1 cbr 210 ------- 0 0.0 2.0 112 112
r 0.66242 0 1 cbr 210 ------- 0 0.0 2.0 112 112
+ 0.66242 1 2 cbr 210 ------- 0 0.0 2.0 112 112
d 0.66242 1 2 cbr 210 ------- 0 0.0 2.0 112 112
+ 0.665 0 1 cbr 210 ------- 0 0.0 2.0 113 113
- 0.665 0 1 cbr 210 ------- 0 0.0 2.0 113 113
r 0.66682 1 2 cbr 210 ------- 0 0.0 2.0 32 32
r 0.66742 0 1 cbr 210 ------- 0 0.0 2.0 113 113
+ 0.66742 1 2 cbr 210 ------- 0 0.0 2.0 113 113
d 0.66742 1 2 cbr 210 ------- 0 0.0 2.0 113 113
+ 0.67 0 1 cbr 210 ------- 0 0.0 2.0 114 114
- 0.67 0 1 cbr 210 ------- 0 0.0 2.0 114 114
r 0.67242 0 1 cbr 210 ------- 0 0.0 2.0 114 114
+ 0.67242 1 2 cbr 210 ------- 0 0.0 2.0 114 114
d 0.67242 1 2 cbr 210 ------- 0 0.0 2.0 114 114
- 0.67362 1 2 cbr 210 ------- 0 0.0 2.0 34 34
+ 0.675 0 1 cbr 210 ------- 0 0.0 2.0 115 115
- 0.675 0 1 cbr 210 ------- 0 0.0 2.0 115 115
r 0.67742 0 1 cbr 210 ------- 0 0.0 2.0 115 115
+ 0.67742 1 2 cbr 210 ------- 0 0.0 2.0 115 115
+ 0.68 0 1 cbr 210 ------- 0 0.0 2.0 116 116
- 0.68 0 1 cbr 210 ------- 0 0.0 2.0 116 116
r 0.68242 0 1 cbr 210 ------- 0 0.0 2.0 116 116
+ 0.68242 1 2 cbr 210 ------- 0 0.0 2.0 116 116
d 0.68242 1 2 cbr 210 ------- 0 0.0 2.0 116 116
r 0.68362 1 2 cbr 210 ------- 0 0.0 2.0 33 33
+ 0.685 0 1 cbr 210 ------- 0 0.0 2.0 117 117
- 0.685 0 1 cbr 210 ------- 0 0.0 2.0 117 117
r 0.68742 0 1 cbr 210 ------- 0 0.0 2.0 117 117
+ 0.68742 1 2 cbr 210 ------- 0 0.0 2.0 117 117
d 0.68742 1 2 cbr 210 ------- 0 0.0 2.0 117 117
+ 0.69 0 1 cbr 210 ------- 0 0.0 2.0 118 118
- 0.69 0 1 cbr 210 ------- 0 0.0 2.0 118 118
- 0.69042 1 2 cbr 210 ------- 0 0.0 2.0 35 35
r 0.69242 0 1 cbr 210 ------- 0 0.0 2.0 118 118
+ 0.69242 1 2 cbr 210 ------- 0 0.0 2.0 118 118
+ 0.695 0 1 cbr 210 ------- 0 0.0 2.0 119 119
- 0.695 0 1 cbr 210 ------- 0 0.0 2.0 119 119
r 0.69742 0 1 cbr 210 ------- 0 0.0 2.0 119 119
+ 0.69742 1 2 cbr 210 ------- 0 0.0 2.0 119 119
d 0.69742 1 2 cbr 210 ------- 0 0.0 2.0 119 119
+ 0.7 0 1 cbr 210 ------- 0 0.0 2.0 120 120
- 0.7 0 1 cbr 210 ------- 0 0.0 2.0 120 120
r 0.70042 1 2 cbr 210 ------- 0 0.0 2.0 34 34
r 0.70242 0 1 cbr 210 ------- 0 0.0 2.0 120 120
+ 0.70242 1 2 cbr 210 ------- 0 0.0 2.0 120 120
d 0.70242 1 2 cbr 210 ------- 0 0.0 2.0 120 120
+ 0.705 0 1 cbr 210 ------- 0 0.0 2.0 121 121
- 0.705 0 1 cbr 210 ------- 0 0.0 2.0 121 121
- 0.70722 1 2 cbr 210 ------- 0 0.0 2.0 36 36
r 0.70742 0 1 cbr 210 ------- 0 0.0 2.0 121 121
+ 0.70742 1 2 cbr 210 ------- 0 0.0 2.0 121 121
+ 0.71 0 1 cbr 210 ------- 0 0.0 2.0 122 122
- 0.71 0 1 cbr 210 ------- 0 0.0 2.0 122 122
r 0.71242 0 1 cbr 210 ------- 0 0.0 2.0 122 122
+ 0.71242 1 2 cbr 210 ------- 0 0.0 2.0 122 122
d 0.71242 1 2 cbr 210 ------- 0 0.0 2.0 122 122
+ 0.715 0 1 cbr 210 ------- 0 0.0 2.0 123 123
- 0.715 0 1 cbr 210 ------- 0 0.0 2.0 123 123
r 0.71722 1 2 cbr 210 ------- 0 0.0 2.0 35 35
r 0.71742 0 1 cbr 210 ------- 0 0.0 2.0 123 123
+ 0.71742 1 2 cbr 210 ------- 0 0.0 2.0 123 123
d 0.71742 1 2 cbr 210 ------- 0 0.0 2.0 123 123
+ 0.72 0 1 cbr 210 ------- 0 0.0 2.0 124 124
- 0.72 0 1 cbr 210 ------- 0 0.0 2.0 124 124
r 0.72242 0 1 cbr 210 ------- 0 0.0 2.0 124 124
+ 0.72242 1 2 cbr 210 ------- 0 0.0 2.0 124 124
d 0.72242 1 2 cbr 210 ------- 0 0.0 2.0 124 124
- 0.72402 1 2 cbr 210 ------- 0 0.0 2.0 37 37
+ 0.725 0 1 cbr 210 ------- 0 0.0 2.0 125 125
- 0.725 0 1 cbr 210 ------- 0 0.0 2.0 125 125
r 0.72742 0 1 cbr 210 ------- 0 0.0 2.0 125 125
+ 0.72742 1 2 cbr 210 ------- 0 0.0 2.0 125 125
+ 0.73 0 1 cbr 210 ------- 0 0.0 2.0 126 126
- 0.73 0 1 cbr 210 ------- 0 0.0 2.0 126 126
r 0.73242 0 1 cbr 210 ------- 0 0.0 2.0 126 126
+ 0.73242 1 2 cbr 210 ------- 0 0.0 2.0 126 126
d 0.73242 1 2 cbr 210 ------- 0 0.0 2.0 126 126
r 0.73402 1 2 cbr 210 ------- 0 0.0 2.0 36 36
+ 0.735 0 1 cbr 210 ------- 0 0.0 2.0 127 127
- 0.735 0 1 cbr 210 ------- 0 0.0 2.0 127 127
r 0.73742 0 1 cbr 210 ------- 0 0.0 2.0 127 127
+ 0.73742 1 2 cbr 210 ------- 0 0.0 2.0 127 127
d 0.73742 1 2 cbr 210 ------- 0 0.0 2.0 127 127
+ 0.74 0 1 cbr 210 ------- 0 0.0 2.0 128 128
- 0.74 0 1 cbr 210 ------- 0 0.0 2.0 128 128
- 0.74082 1 2 cbr 210 ------- 0 0.0 2.0 38 38
r 0.74242 0 1 cbr 210 ------- 0 0.0 2.0 128 128
+ 0.74242 1 2 cbr 210 ------- 0 0.0 2.0 128 128
+ 0.745 0 1 cbr 210 ------- 0 0.0 2.0 129 129
- 0.745 0 1 cbr 210 ------- 0 0.0 2.0 129 129
r 0.74742 0 1 cbr 210 ------- 0 0.0 2.0 129 129
+ 0.74742 1 2 cbr 210 ------- 0 0.0 2.0 129 129
d 0.74742 1 2 cbr 210 ------- 0 0.0 2.0 129 129
+ 0.75 0 1 cbr 210 ------- 0 0.0 2.0 130 130
- 0.75 0 1 cbr 210 ------- 0 0.0 2.0 130 130
r 0.75082 1 2 cbr 210 ------- 0 0.0 2.0 37 37
r 0.75242 0 1 cbr 210 ------- 0 0.0 2.0 130 130
+ 0.75242 1 2 cbr 210 ------- 0 0.0 2.0 130 130
d 0.75242 1 2 cbr 210 ------- 0 0.0 2.0 130 130
+ 0.755 0 1 cbr 210 ------- 0 0.0 2.0 131 131
- 0.755 0 1 cbr 210 ------- 0 0.0 2.0 131 131
r 0.75742 0 1 cbr 210 ------- 0 0.0 2.0 131 131
+ 0.75742 1 2 cbr 210 ------- 0 0.0 2.0 131 131
d 0.75742 1 2 cbr 210 ------- 0 0.0 2.0 131 131
- 0.75762 1 2 cbr 210 ------- 0 0.0 2.0 39 39
+ 0.76 0 1 cbr 210 ------- 0 0.0 2.0 132 132
- 0.76 0 1 cbr 210 ------- 0 0.0 2.0 132 132
r 0.76242 0 1 cbr 210 ------- 0 0.0 2.0 132 132
+ 0.76242 1 2 cbr 210 ------- 0 0.0 2.0 132 132
+ 0.765 0 1 cbr 210 ------- 0 0.0 2.0 133 133
- 0.765 0 1 cbr 210 ------- 0 0.0 2.0 133 133
r 0.76742 0 1 cbr 210 ------- 0 0.0 2.0 133 133
+ 0.76742 1 2 cbr 210 ------- 0 0.0 2.0 133 133
d 0.76742 1 2 cbr 210 ------- 0 0.0 2.0 133 133
r 0.76762 1 2 cbr 210 ------- 0 0.0 2.0 38 38
+ 0.77 0 1 cbr 210 ------- 0 0.0 2.0 134 134
- 0.77 0 1 cbr 210 ------- 0 0.0 2.0 134 134